version 3
run k_MM1_rand-0-20221127-16:03:20-5740
attr configname k_MM1_rand
attr datetime 20221127-16:03:20
attr datetimef 20221127-160320
attr experiment k_MM1_rand
attr inifile omnetpp.ini
attr iterationvars "$time=1.0, $num=1, $0=53542, $1=75335, $2=34542"
attr iterationvarsd time=1.0/num=1/53542/75335/34542
attr iterationvarsf time=1.0,num=1,53542,75335,34542-
attr measurement "$time=1.0, $num=1, $0=53542, $1=75335, $2=34542"
attr network randkMM1
attr processid 5740
attr repetition 0
attr replication #0
attr resultdir results
attr runnumber 0
attr seedset 0
itervar num 1
itervar time 1.0
config description "MM1 module k-times random"
config network randkMM1
config **.source.interArrivalTime "truncnormal(0.5s, 1.5s)"
config **.serviceTime 1.0s
config **.c 1
config **.capacity 10000
config record-eventlog false
config **.scalar-recording true
config **.vector-recording true
config repeat 4
config seed-1-mt 53542
config seed-2-mt 75335
config seed-3-mt 34542
config output-vector-file k_MM1_rand-1-1.0-results/0.vec
config output-scalar-file k_MM1_rand-1-1.0-results/0.sca

vector 0 randkMM1.mm1[0] queueLength:vector ETV
attr interpolationmode none
attr recordingmode vector
attr title "queue length"
vector 1 randkMM1.mm1[0] util:vector ETV
attr interpolationmode none
attr recordingmode vector
attr title resources
0	5	10	1
0	6	11	0
0	12	11.827171173617	1
0	13	11.827171173617	2
0	14	12	1
0	17	13	0
0	23	13.606027186168	1
0	24	13.606027186168	2
0	25	14	1
0	28	15	0
0	34	15.185857250132	1
0	35	15.185857250132	2
0	39	15.212324646123	3
0	40	15.212324646123	4
0	41	16	3
0	44	17	2
0	47	18	1
0	53	18.676817888222	2
0	54	18.676817888222	3
0	55	19	2
0	58	20	1
0	64	20.188523607002	2
0	65	20.188523607002	3
0	66	21	2
0	69	22	1
0	75	22.449037631663	2
0	76	22.449037631663	3
0	80	22.64848590494	4
0	81	22.64848590494	5
0	85	22.766089713586	6
0	86	22.766089713586	7
0	87	23	6
0	93	23.061006516501	7
0	94	23.061006516501	8
0	95	24	7
0	98	25	6
0	101	26	5
0	107	26.294999179582	6
0	108	26.294999179582	7
0	109	27	6
0	112	28	5
0	118	28.449840662742	6
0	119	28.449840662742	7
0	120	29	6
0	123	30	5
0	126	31	4
0	132	31.025287078169	5
0	133	31.025287078169	6
0	134	32	5
0	140	32.370436816032	6
0	141	32.370436816032	7
0	145	32.732349967506	8
0	146	32.732349967506	9
0	147	33	8
0	153	33.427622590931	9
0	154	33.427622590931	10
0	155	34	9
0	158	35	8
0	164	35.361009705535	9
0	165	35.361009705535	10
0	166	36	9
0	172	36.318968815402	10
0	173	36.318968815402	11
0	177	36.606495751791	12
0	178	36.606495751791	13
0	179	37	12
0	185	37.451888873544	13
0	186	37.451888873544	14
0	187	38	13
0	190	39	12
0	196	39.235881430422	13
0	197	39.235881430422	14
0	201	39.604649636623	15
0	202	39.604649636623	16
0	203	40	15
0	206	41	14
0	212	41.330651770781	15
0	213	41.330651770781	16
0	214	42	15
0	220	42.187853298903	16
0	221	42.187853298903	17
0	222	43	16
0	225	44	15
0	228	45	14
0	234	45.633405670364	15
0	235	45.633405670364	16
0	236	46	15
0	239	47	14
0	245	47.448041959464	15
0	246	47.448041959464	16
0	247	48	15
0	250	49	14
0	256	49.831123112465	15
0	257	49.831123112465	16
0	258	50	15
0	264	50.850334624967	16
0	265	50.850334624967	17
0	266	51	16
0	269	52	15
0	275	52.416105991185	16
0	276	52.416105991185	17
0	280	52.91950366343	18
0	281	52.91950366343	19
0	282	53	18
0	285	54	17
0	288	55	16
0	294	55.312304849735	17
0	295	55.312304849735	18
0	296	56	17
0	299	57	16
0	302	58	15
0	305	59	14
0	308	60	13
0	314	60.141391030842	14
0	315	60.141391030842	15
0	319	60.242250660254	16
0	320	60.242250660254	17
0	321	61	16
0	327	61.63158787461	17
0	328	61.63158787461	18
0	332	61.668005784466	19
0	333	61.668005784466	20
0	337	61.837646082385	21
0	338	61.837646082385	22
0	339	62	21
0	345	62.482571645186	22
0	346	62.482571645186	23
0	347	63	22
0	353	63.925620414372	23
0	354	63.925620414372	24
0	355	64	23
0	358	65	22
0	361	66	21
0	364	67	20
0	370	67.197864350667	21
0	371	67.197864350667	22
0	375	67.212018824172	23
0	376	67.212018824172	24
0	377	68	23
0	383	68.375852208914	24
0	384	68.375852208914	25
0	385	69	24
0	388	70	23
0	391	71	22
0	397	71.837902506478	23
0	398	71.837902506478	24
0	399	72	23
0	402	73	22
0	405	74	21
0	408	75	20
0	411	76	19
0	417	76.202808837712	20
0	418	76.202808837712	21
0	419	77	20
0	422	78	19
0	425	79	18
0	431	79.142931448061	19
0	432	79.142931448061	20
0	436	79.246921930653	21
0	437	79.246921930653	22
0	438	80	21
0	444	80.959923572825	22
0	445	80.959923572825	23
0	449	80.978090087111	24
0	450	80.978090087111	25
0	451	81	24
0	457	81.194578763839	25
0	458	81.194578763839	26
0	459	82	25
0	465	82.653892535844	26
0	466	82.653892535844	27
0	467	83	26
0	470	84	25
0	476	84.505063763695	26
0	477	84.505063763695	27
0	478	85	26
0	484	85.11810392511	27
0	485	85.11810392511	28
0	486	86	27
0	492	86.901788399516	28
0	493	86.901788399516	29
0	494	87	28
0	497	88	27
0	503	88.983269433345	28
0	504	88.983269433345	29
0	505	89	28
0	508	90	27
0	514	90.069452499044	28
0	515	90.069452499044	29
0	516	91	28
0	519	92	27
0	525	92.272400919405	28
0	526	92.272400919405	29
0	527	93	28
0	530	94	27
0	536	94.083912364626	28
0	537	94.083912364626	29
0	538	95	28
0	544	95.804034158376	29
0	545	95.804034158376	30
0	549	95.823901085627	31
0	550	95.823901085627	32
0	551	96	31
0	554	97	30
0	560	97.617226420384	31
0	561	97.617226420384	32
0	562	98	31
0	568	98.002631101539	32
0	569	98.002631101539	33
0	573	98.656629152875	34
0	574	98.656629152875	35
0	575	99	34
0	581	99.244781119649	35
0	582	99.244781119649	36
0	586	99.403708030525	37
0	587	99.403708030525	38
0	591	99.947227588238	39
0	592	99.947227588238	40
0	593	100	39
0	596	101	38
0	599	102	37
0	605	102.042367754792	38
0	606	102.042367754792	39
0	607	103	38
0	613	103.370162261368	39
0	614	103.370162261368	40
0	615	104	39
0	618	105	38
0	621	106	37
0	627	106.74742755057	38
0	628	106.74742755057	39
0	629	107	38
0	632	108	37
0	638	108.980487531532	38
0	639	108.980487531532	39
0	640	109	38
0	646	109.61504612417	39
0	647	109.61504612417	40
0	648	110	39
0	654	110.119008621552	40
0	655	110.119008621552	41
0	656	111	40
0	659	112	39
0	662	113	38
0	668	113.64559478146	39
0	669	113.64559478146	40
0	670	114	39
0	676	114.603166050331	40
0	677	114.603166050331	41
0	681	114.81303924601	42
0	682	114.81303924601	43
0	683	115	42
0	689	115.044182276116	43
0	690	115.044182276116	44
0	694	115.533327516679	45
0	695	115.533327516679	46
0	696	116	45
0	699	117	44
0	705	117.179866732027	45
0	706	117.179866732027	46
0	707	118	45
0	713	118.325997870351	46
0	714	118.325997870351	47
0	715	119	46
0	721	119.881787468234	47
0	722	119.881787468234	48
0	723	120	47
0	726	121	46
0	729	122	45
0	735	122.298645158751	46
0	736	122.298645158751	47
0	737	123	46
0	740	124	45
0	746	124.940276156075	46
0	747	124.940276156075	47
0	748	125	46
0	754	125.726525433908	47
0	755	125.726525433908	48
0	756	126	47
0	759	127	46
0	762	128	45
0	768	128.243562964288	46
0	769	128.243562964288	47
0	770	129	46
0	776	129.919579445062	47
0	777	129.919579445062	48
0	778	130	47
0	781	131	46
0	784	132	45
0	790	132.016534629689	46
0	791	132.016534629689	47
0	795	132.311089084778	48
0	796	132.311089084778	49
0	797	133	48
0	803	133.369911402734	49
0	804	133.369911402734	50
0	805	134	49
0	808	135	48
0	811	136	47
0	817	136.859703271574	48
0	818	136.859703271574	49
0	819	137	48
0	822	138	47
0	828	138.064530344015	48
0	829	138.064530344015	49
0	830	139	48
0	833	140	47
0	836	141	46
0	842	141.500210818255	47
0	843	141.500210818255	48
0	844	142	47
0	847	143	46
0	853	143.035214020194	47
0	854	143.035214020194	48
0	858	143.675212110105	49
0	859	143.675212110105	50
0	860	144	49
0	863	145	48
0	866	146	47
0	872	146.099802299881	48
0	873	146.099802299881	49
0	874	147	48
0	880	147.840741271964	49
0	881	147.840741271964	50
0	882	148	49
0	885	149	48
0	891	149.841364851242	49
0	892	149.841364851242	50
0	893	150	49
0	899	150.905889786193	50
0	900	150.905889786193	51
0	901	151	50
0	904	152	49
0	907	153	48
0	913	153.685966922908	49
0	914	153.685966922908	50
0	915	154	49
0	918	155	48
0	921	156	47
0	924	157	46
0	927	158	45
0	933	158.249617337228	46
0	934	158.249617337228	47
0	935	159	46
0	941	159.105942716915	47
0	942	159.105942716915	48
0	946	159.627485898905	49
0	947	159.627485898905	50
0	948	160	49
0	951	161	48
0	957	161.458132789541	49
0	958	161.458132789541	50
0	962	161.958121316395	51
0	963	161.958121316395	52
0	967	161.967805494525	53
0	968	161.967805494525	54
0	969	162	53
0	975	162.201839911299	54
0	976	162.201839911299	55
0	977	163	54
0	983	163.131398480153	55
0	984	163.131398480153	56
0	988	163.769553360185	57
0	989	163.769553360185	58
0	990	164	57
0	993	165	56
0	999	165.022764465577	57
0	1000	165.022764465577	58
0	1001	166	57
0	1007	166.819274295772	58
0	1008	166.819274295772	59
0	1009	167	58
0	1015	167.399338866332	59
0	1016	167.399338866332	60
0	1017	168	59
0	1020	169	58
0	1026	169.886351346235	59
0	1027	169.886351346235	60
0	1028	170	59
0	1031	171	58
0	1037	171.490759851002	59
0	1038	171.490759851002	60
0	1042	171.611941625157	61
0	1043	171.611941625157	62
0	1044	172	61
0	1047	173	60
0	1053	173.334300122389	61
0	1054	173.334300122389	62
0	1058	173.84492403966	63
0	1059	173.84492403966	64
0	1060	174	63
0	1063	175	62
0	1066	176	61
0	1072	176.712508827818	62
0	1073	176.712508827818	63
0	1074	177	62
0	1080	177.566431500375	63
0	1081	177.566431500375	64
0	1082	178	63
0	1088	178.243793481242	64
0	1089	178.243793481242	65
0	1093	178.931646442053	66
0	1094	178.931646442053	67
0	1095	179	66
0	1098	180	65
0	1101	181	64
0	1107	181.143143664165	65
0	1108	181.143143664165	66
0	1112	181.187695804947	67
0	1113	181.187695804947	68
0	1114	182	67
0	1120	182.675818758269	68
0	1121	182.675818758269	69
0	1122	183	68
0	1128	183.662236482055	69
0	1129	183.662236482055	70
0	1130	184	69
0	1133	185	68
0	1139	185.113097463256	69
0	1140	185.113097463256	70
0	1141	186	69
0	1144	187	68
0	1150	187.903585938103	69
0	1151	187.903585938103	70
0	1152	188	69
0	1158	188.608469402768	70
0	1159	188.608469402768	71
0	1160	189	70
0	1166	189.086792233883	71
0	1167	189.086792233883	72
0	1168	190	71
0	1171	191	70
0	1177	191.42779371171	71
0	1178	191.42779371171	72
0	1179	192	71
0	1185	192.690965817201	72
0	1186	192.690965817201	73
0	1187	193	72
0	1193	193.230863107998	73
0	1194	193.230863107998	74
0	1195	194	73
0	1198	195	72
0	1204	195.590979622462	73
0	1205	195.590979622462	74
0	1206	196	73
0	1209	197	72
0	1215	197.177909338714	73
0	1216	197.177909338714	74
0	1217	198	73
0	1220	199	72
0	1226	199.790199275818	73
0	1227	199.790199275818	74
0	1228	200	73
0	1231	201	72
0	1234	202	71
0	1240	202.3065419112	72
0	1241	202.3065419112	73
0	1245	202.396588855389	74
0	1246	202.396588855389	75
0	1247	203	74
0	1253	203.148468893813	75
0	1254	203.148468893813	76
0	1255	204	75
0	1261	204.117354114383	76
0	1262	204.117354114383	77
0	1263	205	76
0	1266	206	75
0	1272	206.392063510092	76
0	1273	206.392063510092	77
0	1277	206.444745096705	78
0	1278	206.444745096705	79
0	1279	207	78
0	1285	207.946898131113	79
0	1286	207.946898131113	80
0	1287	208	79
0	1293	208.365137782234	80
0	1294	208.365137782234	81
0	1295	209	80
0	1301	209.447024754758	81
0	1302	209.447024754758	82
0	1306	209.753689051404	83
0	1307	209.753689051404	84
0	1308	210	83
0	1314	210.620114746347	84
0	1315	210.620114746347	85
0	1316	211	84
0	1322	211.590368260887	85
0	1323	211.590368260887	86
0	1324	212	85
0	1330	212.796226403665	86
0	1331	212.796226403665	87
0	1332	213	86
0	1338	213.24126090955	87
0	1339	213.24126090955	88
0	1343	213.400082761575	89
0	1344	213.400082761575	90
0	1348	213.595580409716	91
0	1349	213.595580409716	92
0	1350	214	91
0	1356	214.45843848115	92
0	1357	214.45843848115	93
0	1358	215	92
0	1361	216	91
0	1367	216.000489356199	92
0	1368	216.000489356199	93
0	1372	216.767558521952	94
0	1373	216.767558521952	95
0	1374	217	94
0	1380	217.694897629078	95
0	1381	217.694897629078	96
0	1382	218	95
0	1385	219	94
0	1391	219.423566266391	95
0	1392	219.423566266391	96
0	1396	219.678141184293	97
0	1397	219.678141184293	98
0	1398	220	97
0	1401	221	96
0	1404	222	95
0	1407	223	94
0	1413	223.675826013147	95
0	1414	223.675826013147	96
0	1415	224	95
0	1421	224.127594347053	96
0	1422	224.127594347053	97
0	1423	225	96
0	1426	226	95
0	1432	226.710314942272	96
0	1433	226.710314942272	97
0	1434	227	96
0	1440	227.869416569715	97
0	1441	227.869416569715	98
0	1442	228	97
0	1448	228.366483575552	98
0	1449	228.366483575552	99
0	1453	228.648265378051	100
0	1454	228.648265378051	101
0	1455	229	100
0	1458	230	99
0	1461	231	98
0	1467	231.055130572163	99
0	1468	231.055130572163	100
0	1469	232	99
0	1475	232.52855032196	100
0	1476	232.52855032196	101
0	1480	232.741918221049	102
0	1481	232.741918221049	103
0	1485	232.750560673158	104
0	1486	232.750560673158	105
0	1487	233	104
0	1493	233.886801315664	105
0	1494	233.886801315664	106
0	1495	234	105
0	1501	234.130288533515	106
0	1502	234.130288533515	107
0	1503	235	106
0	1506	236	105
0	1509	237	104
0	1512	238	103
0	1518	238.079393491144	104
0	1519	238.079393491144	105
0	1520	239	104
0	1526	239.692477741207	105
0	1527	239.692477741207	106
0	1528	240	105
0	1531	241	104
0	1534	242	103
0	1540	242.810369450462	104
0	1541	242.810369450462	105
0	1545	242.958853648559	106
0	1546	242.958853648559	107
0	1547	243	106
0	1550	244	105
0	1556	244.28900043777	106
0	1557	244.28900043777	107
0	1558	245	106
0	1564	245.754651836501	107
0	1565	245.754651836501	108
0	1566	246	107
0	1572	246.523440123871	108
0	1573	246.523440123871	109
0	1574	247	108
0	1580	247.812031425887	109
0	1581	247.812031425887	110
0	1582	248	109
0	1585	249	108
0	1591	249.011237593491	109
0	1592	249.011237593491	110
0	1593	250	109
0	1599	250.510469198919	110
0	1600	250.510469198919	111
0	1601	251	110
0	1607	251.314320422099	111
0	1608	251.314320422099	112
0	1609	252	111
0	1615	252.055999220468	112
0	1616	252.055999220468	113
0	1617	253	112
0	1623	253.454503074101	113
0	1624	253.454503074101	114
0	1625	254	113
0	1631	254.115903435938	114
0	1632	254.115903435938	115
0	1633	255	114
0	1636	256	113
0	1639	257	112
0	1642	258	111
0	1648	258.843991255377	112
0	1649	258.843991255377	113
0	1650	259	112
0	1656	259.382370171999	113
0	1657	259.382370171999	114
0	1658	260	113
0	1661	261	112
0	1667	261.641274184742	113
0	1668	261.641274184742	114
0	1672	261.879686321682	115
0	1673	261.879686321682	116
0	1674	262	115
0	1677	263	114
0	1683	263.683137697178	115
0	1684	263.683137697178	116
0	1685	264	115
0	1688	265	114
0	1694	265.244421798038	115
0	1695	265.244421798038	116
0	1696	266	115
0	1702	266.667790288531	116
0	1703	266.667790288531	117
0	1707	266.970410237968	118
0	1708	266.970410237968	119
0	1709	267	118
0	1715	267.712482954463	119
0	1716	267.712482954463	120
0	1717	268	119
0	1720	269	118
0	1726	269.187881341461	119
0	1727	269.187881341461	120
0	1731	269.323423833504	121
0	1732	269.323423833504	122
0	1733	270	121
0	1739	270.298863398951	122
0	1740	270.298863398951	123
0	1741	271	122
0	1744	272	121
0	1747	273	120
0	1753	273.20189973564	121
0	1754	273.20189973564	122
0	1758	273.479489298412	123
0	1759	273.479489298412	124
0	1760	274	123
0	1766	274.606277109845	124
0	1767	274.606277109845	125
0	1768	275	124
0	1774	275.10388789016	125
0	1775	275.10388789016	126
0	1779	275.317625946249	127
0	1780	275.317625946249	128
0	1781	276	127
0	1787	276.647721529955	128
0	1788	276.647721529955	129
0	1789	277	128
0	1795	277.168736708155	129
0	1796	277.168736708155	130
0	1797	278	129
0	1803	278.587142926129	130
0	1804	278.587142926129	131
0	1805	279	130
0	1808	280	129
0	1811	281	128
0	1817	281.073064257533	129
0	1818	281.073064257533	130
0	1822	281.527135696002	131
0	1823	281.527135696002	132
0	1824	282	131
0	1827	283	130
0	1833	283.417834357513	131
0	1834	283.417834357513	132
0	1835	284	131
0	1841	284.598922181373	132
0	1842	284.598922181373	133
0	1843	285	132
0	1846	286	131
0	1849	287	130
0	1855	287.363175689399	131
0	1856	287.363175689399	132
0	1860	287.588297231591	133
0	1861	287.588297231591	134
0	1862	288	133
0	1868	288.712660467737	134
0	1869	288.712660467737	135
0	1870	289	134
0	1873	290	133
0	1879	290.707642794565	134
0	1880	290.707642794565	135
0	1881	291	134
0	1887	291.713385808188	135
0	1888	291.713385808188	136
0	1889	292	135
0	1892	293	134
0	1898	293.527172834298	135
0	1899	293.527172834298	136
0	1900	294	135
0	1903	295	134
0	1906	296	133
0	1912	296.019952655129	134
0	1913	296.019952655129	135
0	1914	297	134
0	1920	297.452272553206	135
0	1921	297.452272553206	136
0	1922	298	135
0	1928	298.917635209536	136
0	1929	298.917635209536	137
0	1930	299	136
0	1936	299.598893321211	137
0	1937	299.598893321211	138
0	1938	300	137
0	1941	301	136
0	1947	301.583037118439	137
0	1948	301.583037118439	138
0	1952	301.9846759538	139
0	1953	301.9846759538	140
0	1954	302	139
0	1957	303	138
0	1963	303.828248157533	139
0	1964	303.828248157533	140
0	1965	304	139
0	1968	305	138
0	1971	306	137
0	1977	306.07116818725	138
0	1978	306.07116818725	139
0	1982	306.655632485659	140
0	1983	306.655632485659	141
0	1984	307	140
0	1987	308	139
0	1993	308.116942491941	140
0	1994	308.116942491941	141
0	1995	309	140
0	2001	309.767319469974	141
0	2002	309.767319469974	142
0	2006	309.906602295997	143
0	2007	309.906602295997	144
0	2008	310	143
0	2011	311	142
0	2017	311.30970887194	143
0	2018	311.30970887194	144
0	2019	312	143
0	2022	313	142
0	2028	313.824162388508	143
0	2029	313.824162388508	144
0	2030	314	143
0	2036	314.987737799884	144
0	2037	314.987737799884	145
0	2038	315	144
0	2041	316	143
0	2044	317	142
0	2050	317.060023149992	143
0	2051	317.060023149992	144
0	2052	318	143
0	2058	318.962494117453	144
0	2059	318.962494117453	145
0	2060	319	144
0	2063	320	143
0	2066	321	142
0	2069	322	141
0	2075	322.151861695986	142
0	2076	322.151861695986	143
0	2077	323	142
0	2083	323.169109168364	143
0	2084	323.169109168364	144
0	2085	324	143
0	2088	325	142
0	2094	325.394074987944	143
0	2095	325.394074987944	144
0	2096	326	143
0	2099	327	142
0	2105	327.154237628128	143
0	2106	327.154237628128	144
0	2110	327.372844506112	145
0	2111	327.372844506112	146
0	2112	328	145
0	2115	329	144
0	2118	330	143
0	2124	330.358756458352	144
0	2125	330.358756458352	145
0	2129	330.610043852955	146
0	2130	330.610043852955	147
0	2131	331	146
0	2137	331.228272157397	147
0	2138	331.228272157397	148
0	2139	332	147
0	2145	332.614001308282	148
0	2146	332.614001308282	149
0	2147	333	148
0	2153	333.521640066257	149
0	2154	333.521640066257	150
0	2155	334	149
0	2158	335	148
0	2164	335.943185024629	149
0	2165	335.943185024629	150
0	2166	336	149
0	2169	337	148
0	2175	337.800060969624	149
0	2176	337.800060969624	150
0	2177	338	149
0	2180	339	148
0	2186	339.580666890525	149
0	2187	339.580666890525	150
0	2188	340	149
0	2191	341	148
0	2197	341.605749525792	149
0	2198	341.605749525792	150
0	2199	342	149
0	2202	343	148
0	2205	344	147
0	2208	345	146
0	2214	345.385069655689	147
0	2215	345.385069655689	148
0	2216	346	147
0	2219	347	146
0	2222	348	145
0	2228	348.258907661721	146
0	2229	348.258907661721	147
0	2230	349	146
0	2236	349.491734344912	147
0	2237	349.491734344912	148
0	2238	350	147
0	2241	351	146
0	2247	351.427920284189	147
0	2248	351.427920284189	148
0	2249	352	147
0	2255	352.42569943651	148
0	2256	352.42569943651	149
0	2260	352.763587929861	150
0	2261	352.763587929861	151
0	2262	353	150
0	2268	353.121386653341	151
0	2269	353.121386653341	152
0	2273	353.484565075203	153
0	2274	353.484565075203	154
0	2275	354	153
0	2278	355	152
0	2281	356	151
0	2287	356.751834414018	152
0	2288	356.751834414018	153
0	2292	356.985080988979	154
0	2293	356.985080988979	155
0	2294	357	154
0	2297	358	153
0	2303	358.026533174127	154
0	2304	358.026533174127	155
0	2305	359	154
0	2308	360	153
0	2311	361	152
0	2317	361.472263184541	153
0	2318	361.472263184541	154
0	2319	362	153
0	2322	363	152
0	2325	364	151
0	2331	364.507256159131	152
0	2332	364.507256159131	153
0	2333	365	152
0	2336	366	151
0	2342	366.5568443013	152
0	2343	366.5568443013	153
0	2344	367	152
0	2347	368	151
0	2353	368.198639320129	152
0	2354	368.198639320129	153
0	2358	368.786541726604	154
0	2359	368.786541726604	155
0	2360	369	154
0	2363	370	153
0	2369	370.390884284373	154
0	2370	370.390884284373	155
0	2374	370.505680351851	156
0	2375	370.505680351851	157
0	2379	370.740530516867	158
0	2380	370.740530516867	159
0	2381	371	158
0	2384	372	157
0	2390	372.359739043405	158
0	2391	372.359739043405	159
0	2392	373	158
0	2398	373.01117286105	159
0	2399	373.01117286105	160
0	2403	373.278109581053	161
0	2404	373.278109581053	162
0	2405	374	161
0	2411	374.51628370646	162
0	2412	374.51628370646	163
0	2413	375	162
0	2419	375.086250266992	163
0	2420	375.086250266992	164
0	2421	376	163
0	2424	377	162
0	2427	378	161
0	2430	379	160
0	2436	379.969088352906	161
0	2437	379.969088352906	162
0	2438	380	161
0	2444	380.907566817126	162
0	2445	380.907566817126	163
0	2446	381	162
0	2449	382	161
0	2455	382.158192745904	162
0	2456	382.158192745904	163
0	2460	382.44641878846	164
0	2461	382.44641878846	165
0	2462	383	164
0	2468	383.785701761571	165
0	2469	383.785701761571	166
0	2470	384	165
0	2473	385	164
0	2479	385.403816656875	165
0	2480	385.403816656875	166
0	2484	385.45181248783	167
0	2485	385.45181248783	168
0	2486	386	167
0	2489	387	166
0	2495	387.942509754816	167
0	2496	387.942509754816	168
0	2497	388	167
0	2500	389	166
0	2506	389.542591151426	167
0	2507	389.542591151426	168
0	2508	390	167
0	2514	390.585854559911	168
0	2515	390.585854559911	169
0	2519	390.912249965614	170
0	2520	390.912249965614	171
0	2521	391	170
0	2524	392	169
0	2530	392.803754951187	170
0	2531	392.803754951187	171
0	2532	393	170
0	2538	393.271045625649	171
0	2539	393.271045625649	172
0	2540	394	171
0	2543	395	170
0	2549	395.053248280215	171
0	2550	395.053248280215	172
0	2554	395.428058254031	173
0	2555	395.428058254031	174
0	2556	396	173
0	2559	397	172
0	2562	398	171
0	2568	398.525128087048	172
0	2569	398.525128087048	173
0	2570	399	172
0	2576	399.936527573689	173
0	2577	399.936527573689	174
0	2578	400	173
0	2584	400.684053746199	174
0	2585	400.684053746199	175
0	2586	401	174
0	2592	401.338755301712	175
0	2593	401.338755301712	176
0	2594	402	175
0	2597	403	174
0	2600	404	173
0	2606	404.699188225892	174
0	2607	404.699188225892	175
0	2608	405	174
0	2614	405.6497679386	175
0	2615	405.6497679386	176
0	2616	406	175
0	2619	407	174
0	2625	407.984270107615	175
0	2626	407.984270107615	176
0	2627	408	175
0	2630	409	174
0	2636	409.287673529679	175
0	2637	409.287673529679	176
0	2638	410	175
0	2644	410.099646860247	176
0	2645	410.099646860247	177
0	2649	410.130269623918	178
0	2650	410.130269623918	179
0	2651	411	178
0	2657	411.594172295624	179
0	2658	411.594172295624	180
0	2659	412	179
0	2665	412.013619357105	180
0	2666	412.013619357105	181
0	2667	413	180
0	2673	413.589140685729	181
0	2674	413.589140685729	182
0	2675	414	181
0	2678	415	180
0	2681	416	179
0	2687	416.559705938933	180
0	2688	416.559705938933	181
0	2689	417	180
0	2692	418	179
0	2698	418.440856408226	180
0	2699	418.440856408226	181
0	2700	419	180
0	2703	420	179
0	2706	421	178
0	2712	421.600989916782	179
0	2713	421.600989916782	180
0	2717	421.682677032169	181
0	2718	421.682677032169	182
0	2722	421.743582985348	183
0	2723	421.743582985348	184
0	2724	422	183
0	2727	423	182
0	2733	423.895375662058	183
0	2734	423.895375662058	184
0	2735	424	183
0	2738	425	182
0	2744	425.823299302557	183
0	2745	425.823299302557	184
0	2746	426	183
0	2749	427	182
0	2752	428	181
0	2755	429	180
0	2761	429.186126690172	181
0	2762	429.186126690172	182
0	2763	430	181
0	2766	431	180
0	2769	432	179
0	2772	433	178
0	2778	433.589209410511	179
0	2779	433.589209410511	180
0	2780	434	179
0	2783	435	178
0	2789	435.961075746932	179
0	2790	435.961075746932	180
0	2791	436	179
0	2794	437	178
0	2800	437.177164067708	179
0	2801	437.177164067708	180
0	2805	437.56736120669	181
0	2806	437.56736120669	182
0	2807	438	181
0	2813	438.754306817632	182
0	2814	438.754306817632	183
0	2815	439	182
0	2818	440	181
0	2821	441	180
0	2827	441.133367694247	181
0	2828	441.133367694247	182
0	2832	441.461306743997	183
0	2833	441.461306743997	184
0	2834	442	183
0	2837	443	182
0	2843	443.58595256676	183
0	2844	443.58595256676	184
0	2845	444	183
0	2848	445	182
0	2854	445.586873306002	183
0	2855	445.586873306002	184
0	2856	446	183
0	2862	446.951383293819	184
0	2863	446.951383293819	185
0	2867	446.993382798573	186
0	2868	446.993382798573	187
0	2869	447	186
0	2875	447.268860220563	187
0	2876	447.268860220563	188
0	2877	448	187
0	2883	448.913382062926	188
0	2884	448.913382062926	189
0	2885	449	188
0	2888	450	187
0	2891	451	186
0	2897	451.218246543539	187
0	2898	451.218246543539	188
0	2899	452	187
0	2902	453	186
0	2905	454	185
0	2908	455	184
0	2914	455.05256893794	185
0	2915	455.05256893794	186
0	2916	456	185
0	2919	457	184
0	2925	457.014962274537	185
0	2926	457.014962274537	186
0	2930	457.900967775505	187
0	2931	457.900967775505	188
0	2932	458	187
0	2935	459	186
0	2941	459.652322204804	187
0	2942	459.652322204804	188
0	2943	460	187
0	2946	461	186
0	2949	462	185
0	2955	462.120684570641	186
0	2956	462.120684570641	187
0	2957	463	186
0	2960	464	185
0	2966	464.467351110331	186
0	2967	464.467351110331	187
0	2971	464.518235207407	188
0	2972	464.518235207407	189
0	2976	464.580148104089	190
0	2977	464.580148104089	191
0	2978	465	190
0	2981	466	189
0	2987	466.201046154479	190
0	2988	466.201046154479	191
0	2989	467	190
0	2995	467.458376867877	191
0	2996	467.458376867877	192
0	3000	467.712669348832	193
0	3001	467.712669348832	194
0	3002	468	193
0	3008	468.029803911531	194
0	3009	468.029803911531	195
0	3010	469	194
0	3016	469.961199909481	195
0	3017	469.961199909481	196
0	3018	470	195
0	3021	471	194
0	3027	471.332552121946	195
0	3028	471.332552121946	196
0	3032	471.535537301162	197
0	3033	471.535537301162	198
0	3034	472	197
0	3037	473	196
0	3043	473.177535279642	197
0	3044	473.177535279642	198
0	3045	474	197
0	3048	475	196
0	3054	475.767537520014	197
0	3055	475.767537520014	198
0	3056	476	197
0	3059	477	196
0	3065	477.457835097245	197
0	3066	477.457835097245	198
0	3070	477.58432782361	199
0	3071	477.58432782361	200
0	3072	478	199
0	3078	478.687724539086	200
0	3079	478.687724539086	201
0	3083	478.70097554053	202
0	3084	478.70097554053	203
0	3088	478.838788415028	204
0	3089	478.838788415028	205
0	3090	479	204
0	3096	479.354624867202	205
0	3097	479.354624867202	206
0	3098	480	205
0	3101	481	204
0	3107	481.855128471877	205
0	3108	481.855128471877	206
0	3109	482	205
0	3112	483	204
0	3118	483.360197209854	205
0	3119	483.360197209854	206
0	3120	484	205
0	3123	485	204
0	3126	486	203
0	3129	487	202
0	3135	487.169844430728	203
0	3136	487.169844430728	204
0	3140	487.532419559508	205
0	3141	487.532419559508	206
0	3142	488	205
0	3145	489	204
0	3151	489.362230117727	205
0	3152	489.362230117727	206
0	3153	490	205
0	3156	491	204
0	3159	492	203
0	3165	492.183718554911	204
0	3166	492.183718554911	205
0	3167	493	204
0	3170	494	203
0	3176	494.301570667924	204
0	3177	494.301570667924	205
0	3178	495	204
0	3184	495.606206348066	205
0	3185	495.606206348066	206
0	3186	496	205
0	3192	496.606796436631	206
0	3193	496.606796436631	207
0	3194	497	206
0	3197	498	205
0	3203	498.698612027032	206
0	3204	498.698612027032	207
0	3205	499	206
0	3208	500	205
0	3211	501	204
0	3217	501.483258607154	205
0	3218	501.483258607154	206
0	3219	502	205
0	3222	503	204
0	3228	503.341144864731	205
0	3229	503.341144864731	206
0	3230	504	205
0	3233	505	204
0	3236	506	203
0	3239	507	202
0	3245	507.639099111517	203
0	3246	507.639099111517	204
0	3247	508	203
0	3250	509	202
0	3253	510	201
0	3259	510.651165989693	202
0	3260	510.651165989693	203
0	3261	511	202
0	3267	511.470020344781	203
0	3268	511.470020344781	204
0	3272	511.592812200837	205
0	3273	511.592812200837	206
0	3274	512	205
0	3280	512.125235049929	206
0	3281	512.125235049929	207
0	3282	513	206
0	3288	513.679146202218	207
0	3289	513.679146202218	208
0	3290	514	207
0	3296	514.301575631176	208
0	3297	514.301575631176	209
0	3298	515	208
0	3304	515.341060287994	209
0	3305	515.341060287994	210
0	3309	515.455865147779	211
0	3310	515.455865147779	212
0	3311	516	211
0	3314	517	210
0	3320	517.919274916909	211
0	3321	517.919274916909	212
0	3322	518	211
0	3325	519	210
0	3331	519.236313850583	211
0	3332	519.236313850583	212
0	3336	519.345801226683	213
0	3337	519.345801226683	214
0	3338	520	213
0	3341	521	212
0	3347	521.158376235475	213
0	3348	521.158376235475	214
0	3349	522	213
0	3355	522.88410409377	214
0	3356	522.88410409377	215
0	3360	522.897992445012	216
0	3361	522.897992445012	217
0	3362	523	216
0	3365	524	215
0	3368	525	214
0	3371	526	213
0	3374	527	212
0	3377	528	211
0	3383	528.677293729875	212
0	3384	528.677293729875	213
0	3385	529	212
0	3388	530	211
0	3394	530.638857825312	212
0	3395	530.638857825312	213
0	3396	531	212
0	3399	532	211
0	3402	533	210
0	3405	534	209
0	3408	535	208
0	3414	535.249019616404	209
0	3415	535.249019616404	210
0	3419	535.27022173537	211
0	3420	535.27022173537	212
0	3424	535.412096022025	213
0	3425	535.412096022025	214
0	3426	536	213
0	3432	536.607231230037	214
0	3433	536.607231230037	215
0	3434	537	214
0	3440	537.591284728742	215
0	3441	537.591284728742	216
0	3442	538	215
0	3448	538.947175925157	216
0	3449	538.947175925157	217
0	3450	539	216
0	3453	540	215
0	3459	540.740299033478	216
0	3460	540.740299033478	217
0	3464	540.750221874326	218
0	3465	540.750221874326	219
0	3469	540.87689240162	220
0	3470	540.87689240162	221
0	3471	541	220
0	3474	542	219
0	3480	542.250494134375	220
0	3481	542.250494134375	221
0	3482	543	220
0	3485	544	219
0	3491	544.21801278404	220
0	3492	544.21801278404	221
0	3493	545	220
0	3496	546	219
0	3499	547	218
0	3502	548	217
0	3505	549	216
0	3508	550	215
0	3514	550.396748478366	216
0	3515	550.396748478366	217
0	3516	551	216
0	3519	552	215
0	3522	553	214
0	3528	553.113107172604	215
0	3529	553.113107172604	216
0	3533	553.325445180064	217
0	3534	553.325445180064	218
0	3535	554	217
0	3538	555	216
0	3541	556	215
0	3547	556.861096270392	216
0	3548	556.861096270392	217
0	3549	557	216
0	3552	558	215
0	3555	559	214
0	3561	559.290707801639	215
0	3562	559.290707801639	216
0	3566	559.467444757356	217
0	3567	559.467444757356	218
0	3568	560	217
0	3571	561	216
0	3577	561.147329718008	217
0	3578	561.147329718008	218
0	3582	561.72856850616	219
0	3583	561.72856850616	220
0	3584	562	219
0	3590	562.763081480148	220
0	3591	562.763081480148	221
0	3592	563	220
0	3598	563.989418917038	221