version 3
run k_MM1_rand-1-20221127-16:03:20-5740
attr configname k_MM1_rand
attr datetime 20221127-16:03:20
attr datetimef 20221127-160320
attr experiment k_MM1_rand
attr inifile omnetpp.ini
attr iterationvars "$time=1.0, $num=1, $0=45732, $1=35463, $2=67563"
attr iterationvarsd time=1.0/num=1/45732/35463/67563
attr iterationvarsf time=1.0,num=1,45732,35463,67563-
attr measurement "$time=1.0, $num=1, $0=45732, $1=35463, $2=67563"
attr network randkMM1
attr processid 5740
attr repetition 1
attr replication #1
attr resultdir results
attr runnumber 1
attr seedset 1
itervar num 1
itervar time 1.0
config description "MM1 module k-times random"
config network randkMM1
config **.source.interArrivalTime "truncnormal(0.5s, 1.5s)"
config **.serviceTime 1.0s
config **.c 1
config **.capacity 10000
config record-eventlog false
config **.scalar-recording true
config **.vector-recording true
config repeat 4
config seed-1-mt 45732
config seed-2-mt 35463
config seed-3-mt 67563
config output-vector-file k_MM1_rand-1-1.0-results/1.vec
config output-scalar-file k_MM1_rand-1-1.0-results/1.sca

vector 0 randkMM1.mm1[0] queueLength:vector ETV
attr interpolationmode none
attr recordingmode vector
attr title "queue length"
vector 1 randkMM1.mm1[0] util:vector ETV
attr interpolationmode none
attr recordingmode vector
attr title resources
0	5	10	1
0	6	11	0
0	16	12.058032913238	1
0	17	13.058032913238	0
0	27	14.740730364275	1
0	31	15.256455171176	2
0	32	15.256455171176	3
0	33	15.740730364275	2
0	36	16.740730364275	1
0	42	17.02924678267	2
0	43	17.02924678267	3
0	47	17.603019144686	4
0	48	17.603019144686	5
0	49	17.740730364275	4
0	52	18.740730364275	3
0	58	19.489157654655	4
0	59	19.489157654655	5
0	60	19.740730364275	4
0	63	20.740730364275	3
0	69	21.050813081397	4
0	70	21.050813081397	5
0	71	21.740730364275	4
0	77	21.944638095777	5
0	78	21.944638095777	6
0	82	22.099368402912	7
0	83	22.099368402912	8
0	84	22.740730364275	7
0	87	23.740730364275	6
0	93	24.515692235458	7
0	94	24.515692235458	8
0	95	24.740730364275	7
0	98	25.740730364275	6
0	104	25.78113995074	7
0	105	25.78113995074	8
0	109	26.457990956832	9
0	110	26.457990956832	10
0	111	26.740730364275	9
0	114	27.740730364275	8
0	120	28.240354929665	9
0	121	28.240354929665	10
0	122	28.740730364275	9
0	125	29.740730364275	8
0	131	29.826251283716	9
0	132	29.826251283716	10
0	133	30.740730364275	9
0	136	31.740730364275	8
0	142	32.354926189409	9
0	143	32.354926189409	10
0	144	32.740730364275	9
0	147	33.740730364275	8
0	153	34.37290778577	9
0	154	34.37290778577	10
0	155	34.740730364275	9
0	161	35.176197444816	10
0	162	35.176197444816	11
0	166	35.615091219951	12
0	167	35.615091219951	13
0	168	35.740730364275	12
0	171	36.740730364275	11
0	177	36.967601211096	12
0	178	36.967601211096	13
0	179	37.740730364275	12
0	185	38.066770456912	13
0	186	38.066770456912	14
0	187	38.740730364275	13
0	193	39.385831752435	14
0	194	39.385831752435	15
0	195	39.740730364275	14
0	201	40.360580973329	15
0	202	40.360580973329	16
0	203	40.740730364275	15
0	209	41.142163480929	16
0	210	41.142163480929	17
0	211	41.740730364275	16
0	217	42.103439186857	17
0	218	42.103439186857	18
0	219	42.740730364275	17
0	225	43.230557063192	18
0	226	43.230557063192	19
0	227	43.740730364275	18
0	230	44.740730364275	17
0	233	45.740730364275	16
0	239	46.430690902024	17
0	240	46.430690902024	18
0	241	46.740730364275	17
0	244	47.740730364275	16
0	250	47.957841447075	17
0	251	47.957841447075	18
0	252	48.740730364275	17
0	258	49.361382924943	18
0	259	49.361382924943	19
0	260	49.740730364275	18
0	266	50.118026375121	19
0	267	50.118026375121	20
0	268	50.740730364275	19
0	271	51.740730364275	18
0	277	52.577297073718	19
0	278	52.577297073718	20
0	279	52.740730364275	19
0	282	53.740730364275	18
0	288	53.952248654078	19
0	289	53.952248654078	20
0	293	54.095618987083	21
0	294	54.095618987083	22
0	298	54.140848223759	23
0	299	54.140848223759	24
0	300	54.740730364275	23
0	306	55.454547000655	24
0	307	55.454547000655	25
0	308	55.740730364275	24
0	314	55.816611618976	25
0	315	55.816611618976	26
0	319	56.593509590237	27
0	320	56.593509590237	28
0	321	56.740730364275	27
0	324	57.740730364275	26
0	330	58.568347036737	27
0	331	58.568347036737	28
0	332	58.740730364275	27
0	338	59.114995540906	28
0	339	59.114995540906	29
0	340	59.740730364275	28
0	343	60.740730364275	27
0	349	61.398671892425	28
0	350	61.398671892425	29
0	351	61.740730364275	28
0	354	62.740730364275	27
0	360	63.310774452739	28
0	361	63.310774452739	29
0	362	63.740730364275	28
0	368	64.28580437203	29
0	369	64.28580437203	30
0	370	64.740730364275	29
0	373	65.740730364275	28
0	376	66.740730364275	27
0	379	67.740730364275	26
0	385	68.330901314354	27
0	386	68.330901314354	28
0	387	68.740730364275	27
0	390	69.740730364275	26
0	396	70.310709596755	27
0	397	70.310709596755	28
0	398	70.740730364275	27
0	404	71.450682789063	28
0	405	71.450682789063	29
0	406	71.740730364275	28
0	409	72.740730364275	27
0	415	73.643244820586	28
0	416	73.643244820586	29
0	417	73.740730364275	28
0	423	74.258648523014	29
0	424	74.258648523014	30
0	425	74.740730364275	29
0	431	74.81454488369	30
0	432	74.81454488369	31
0	433	75.740730364275	30
0	439	76.479591656483	31
0	440	76.479591656483	32
0	441	76.740730364275	31
0	444	77.740730364275	30
0	447	78.740730364275	29
0	450	79.740730364275	28
0	453	80.740730364275	27
0	459	80.850569753254	28
0	460	80.850569753254	29
0	461	81.740730364275	28
0	464	82.740730364275	27
0	470	83.221237739431	28
0	471	83.221237739431	29
0	472	83.740730364275	28
0	478	83.891640446397	29
0	479	83.891640446397	30
0	480	84.740730364275	29
0	483	85.740730364275	28
0	486	86.740730364275	27
0	489	87.740730364275	26
0	495	87.764039139179	27
0	496	87.764039139179	28
0	497	88.740730364275	27
0	500	89.740730364275	26
0	506	90.105281271639	27
0	507	90.105281271639	28
0	511	90.69475253997	29
0	512	90.69475253997	30
0	513	90.740730364275	29
0	519	91.633416428174	30
0	520	91.633416428174	31
0	521	91.740730364275	30
0	527	92.149610617267	31
0	528	92.149610617267	32
0	529	92.740730364275	31
0	532	93.740730364275	30
0	538	93.840201016247	31
0	539	93.840201016247	32
0	540	94.740730364275	31
0	543	95.740730364275	30
0	549	96.172887519078	31
0	550	96.172887519078	32
0	551	96.740730364275	31
0	557	96.973268018438	32
0	558	96.973268018438	33
0	562	97.441361382715	34
0	563	97.441361382715	35
0	564	97.740730364275	34
0	567	98.740730364275	33
0	573	99.637470087844	34
0	574	99.637470087844	35
0	575	99.740730364275	34
0	578	100.740730364275	33
0	581	101.740730364275	32
0	584	102.740730364275	31
0	587	103.740730364275	30
0	590	104.740730364275	29
0	596	104.807698257246	30
0	597	104.807698257246	31
0	601	105.270674681373	32
0	602	105.270674681373	33
0	603	105.740730364275	32
0	606	106.740730364275	31
0	612	107.01323200986	32
0	613	107.01323200986	33
0	617	107.581451233634	34
0	618	107.581451233634	35
0	619	107.740730364275	34
0	625	108.727944721565	35
0	626	108.727944721565	36
0	627	108.740730364275	35
0	630	109.740730364275	34
0	633	110.740730364275	33
0	636	111.740730364275	32
0	642	112.463185672505	33
0	643	112.463185672505	34
0	644	112.740730364275	33
0	650	113.325729432172	34
0	651	113.325729432172	35
0	655	113.586694751207	36
0	656	113.586694751207	37
0	657	113.740730364275	36
0	663	114.35668851194	37
0	664	114.35668851194	38
0	668	114.497903817379	39
0	669	114.497903817379	40
0	670	114.740730364275	39
0	673	115.740730364275	38
0	679	115.901323618504	39
0	680	115.901323618504	40
0	684	116.614757903077	41
0	685	116.614757903077	42
0	686	116.740730364275	41
0	689	117.740730364275	40
0	692	118.740730364275	39
0	698	118.978672451987	40
0	699	118.978672451987	41
0	703	119.558016954441	42
0	704	119.558016954441	43
0	705	119.740730364275	42
0	708	120.740730364275	41
0	714	121.076404074139	42
0	715	121.076404074139	43
0	719	121.688616459205	44
0	720	121.688616459205	45
0	721	121.740730364275	44
0	727	121.96634267568	45
0	728	121.96634267568	46
0	732	122.501573499344	47
0	733	122.501573499344	48
0	734	122.740730364275	47
0	740	123.302496766998	48
0	741	123.302496766998	49
0	742	123.740730364275	48
0	748	124.506820973582	49
0	749	124.506820973582	50
0	750	124.740730364275	49
0	756	125.398647641821	50
0	757	125.398647641821	51
0	758	125.740730364275	50
0	764	126.041330608095	51
0	765	126.041330608095	52
0	766	126.740730364275	51
0	769	127.740730364275	50
0	772	128.740730364275	49
0	778	128.850993267946	50
0	779	128.850993267946	51
0	783	129.514476745577	52
0	784	129.514476745577	53
0	785	129.740730364275	52
0	791	129.854968519925	53
0	792	129.854968519925	54
0	796	130.055185458822	55
0	797	130.055185458822	56
0	798	130.740730364275	55
0	804	131.459207207213	56
0	805	131.459207207213	57
0	806	131.740730364275	56
0	812	132.619097285555	57
0	813	132.619097285555	58
0	814	132.740730364275	57
0	817	133.740730364275	56
0	823	134.424259480909	57
0	824	134.424259480909	58
0	825	134.740730364275	57
0	828	135.740730364275	56
0	834	135.841013502181	57
0	835	135.841013502181	58
0	836	136.740730364275	57
0	839	137.740730364275	56
0	842	138.740730364275	55
0	845	139.740730364275	54
0	851	140.119155915441	55
0	852	140.119155915441	56
0	856	140.454121843011	57
0	857	140.454121843011	58
0	861	140.619612247062	59
0	862	140.619612247062	60
0	863	140.740730364275	59
0	869	141.614695904041	60
0	870	141.614695904041	61
0	871	141.740730364275	60
0	874	142.740730364275	59
0	877	143.740730364275	58
0	883	144.187532322688	59
0	884	144.187532322688	60
0	885	144.740730364275	59
0	888	145.740730364275	58
0	891	146.740730364275	57
0	897	146.893346674426	58
0	898	146.893346674426	59
0	902	147.444775481478	60
0	903	147.444775481478	61
0	904	147.740730364275	60
0	910	147.775693997746	61
0	911	147.775693997746	62
0	912	148.740730364275	61
0	918	148.829574243381	62
0	919	148.829574243381	63
0	920	149.740730364275	62
0	926	150.005979904418	63
0	927	150.005979904418	64
0	931	150.667617376238	65
0	932	150.667617376238	66
0	933	150.740730364275	65
0	936	151.740730364275	64
0	939	152.740730364275	63
0	942	153.740730364275	62
0	948	154.637401811279	63
0	949	154.637401811279	64
0	950	154.740730364275	63
0	953	155.740730364275	62
0	959	156.337802840255	63
0	960	156.337802840255	64
0	961	156.740730364275	63
0	967	157.244288222525	64
0	968	157.244288222525	65
0	969	157.740730364275	64
0	972	158.740730364275	63
0	975	159.740730364275	62
0	981	159.891114986989	63
0	982	159.891114986989	64
0	983	160.740730364275	63
0	989	161.184425470851	64
0	990	161.184425470851	65
0	994	161.73408995917	66
0	995	161.73408995917	67
0	996	161.740730364275	66
0	1002	162.56869089773	67
0	1003	162.56869089773	68
0	1004	162.740730364275	67
0	1007	163.740730364275	66
0	1010	164.740730364275	65
0	1016	164.957090107539	66
0	1017	164.957090107539	67
0	1018	165.740730364275	66
0	1024	166.307792404998	67
0	1025	166.307792404998	68
0	1026	166.740730364275	67
0	1029	167.740730364275	66
0	1035	168.121978578838	67
0	1036	168.121978578838	68
0	1040	168.276783873736	69
0	1041	168.276783873736	70
0	1042	168.740730364275	69
0	1048	169.738945533452	70
0	1049	169.738945533452	71
0	1050	169.740730364275	70
0	1053	170.740730364275	69
0	1056	171.740730364275	68
0	1062	171.923955575597	69
0	1063	171.923955575597	70
0	1064	172.740730364275	69
0	1070	173.316542644674	70
0	1071	173.316542644674	71
0	1072	173.740730364275	70
0	1075	174.740730364275	69
0	1081	174.793361179	70
0	1082	174.793361179	71
0	1086	175.217046685016	72
0	1087	175.217046685016	73
0	1091	175.503497598412	74
0	1092	175.503497598412	75
0	1093	175.740730364275	74
0	1096	176.740730364275	73
0	1102	177.663582138663	74
0	1103	177.663582138663	75
0	1104	177.740730364275	74
0	1110	177.938259509582	75
0	1111	177.938259509582	76
0	1115	178.291014034734	77
0	1116	178.291014034734	78
0	1117	178.740730364275	77
0	1123	178.873691317711	78
0	1124	178.873691317711	79
0	1125	179.740730364275	78
0	1128	180.740730364275	77
0	1131	181.740730364275	76
0	1137	182.649149456108	77
0	1138	182.649149456108	78
0	1139	182.740730364275	77
0	1145	183.700086446381	78
0	1146	183.700086446381	79
0	1147	183.740730364275	78
0	1150	184.740730364275	77
0	1153	185.740730364275	76
0	1156	186.740730364275	75
0	1162	187.531314428411	76
0	1163	187.531314428411	77
0	1164	187.740730364275	76
0	1167	188.740730364275	75
0	1170	189.740730364275	74
0	1176	189.954058842715	75
0	1177	189.954058842715	76
0	1181	190.042358113837	77
0	1182	190.042358113837	78
0	1183	190.740730364275	77
0	1189	191.404949999543	78
0	1190	191.404949999543	79
0	1191	191.740730364275	78
0	1194	192.740730364275	77
0	1197	193.740730364275	76
0	1203	193.924137342094	77
0	1204	193.924137342094	78
0	1205	194.740730364275	77
0	1211	195.651500718829	78
0	1212	195.651500718829	79
0	1213	195.740730364275	78
0	1216	196.740730364275	77
0	1219	197.740730364275	76
0	1222	198.740730364275	75
0	1225	199.740730364275	74
0	1231	199.915321853853	75
0	1232	199.915321853853	76
0	1233	200.740730364275	75
0	1239	201.101929725598	76
0	1240	201.101929725598	77
0	1244	201.319543331406	78
0	1245	201.319543331406	79
0	1246	201.740730364275	78
0	1249	202.740730364275	77
0	1255	203.594431427566	78
0	1256	203.594431427566	79
0	1257	203.740730364275	78
0	1263	203.791565373501	79
0	1264	203.791565373501	80
0	1265	204.740730364275	79
0	1268	205.740730364275	78
0	1271	206.740730364275	77
0	1274	207.740730364275	76
0	1280	207.831522189721	77
0	1281	207.831522189721	78
0	1285	208.074570225406	79
0	1286	208.074570225406	80
0	1287	208.740730364275	79
0	1293	209.311101046058	80
0	1294	209.311101046058	81
0	1295	209.740730364275	80
0	1301	210.409624184419	81
0	1302	210.409624184419	82
0	1306	210.638625791185	83
0	1307	210.638625791185	84
0	1308	210.740730364275	83
0	1311	211.740730364275	82
0	1317	212.713844411464	83
0	1318	212.713844411464	84
0	1319	212.740730364275	83
0	1325	213.378567080837	84
0	1326	213.378567080837	85
0	1327	213.740730364275	84
0	1330	214.740730364275	83
0	1333	215.740730364275	82
0	1336	216.740730364275	81
0	1342	216.741159232686	82
0	1343	216.741159232686	83
0	1344	217.740730364275	82
0	1347	218.740730364275	81
0	1350	219.740730364275	80
0	1356	220.423385231388	81
0	1357	220.423385231388	82
0	1358	220.740730364275	81
0	1361	221.740730364275	80
0	1367	221.785103507383	81
0	1368	221.785103507383	82
0	1369	222.740730364275	81
0	1372	223.740730364275	80
0	1378	223.941368906466	81
0	1379	223.941368906466	82
0	1383	224.695218265909	83
0	1384	224.695218265909	84
0	1385	224.740730364275	83
0	1391	225.592281174763	84
0	1392	225.592281174763	85
0	1393	225.740730364275	84
0	1399	226.1053446073	85
0	1400	226.1053446073	86
0	1401	226.740730364275	85
0	1404	227.740730364275	84
0	1410	228.390244450345	85
0	1411	228.390244450345	86
0	1412	228.740730364275	85
0	1418	229.010904089804	86
0	1419	229.010904089804	87
0	1420	229.740730364275	86
0	1423	230.740730364275	85
0	1429	230.771916896308	86
0	1430	230.771916896308	87
0	1434	231.617012258908	88
0	1435	231.617012258908	89
0	1436	231.740730364275	88
0	1439	232.740730364275	87
0	1442	233.740730364275	86
0	1448	234.087473073184	87
0	1449	234.087473073184	88
0	1450	234.740730364275	87
0	1456	235.084366832291	88
0	1457	235.084366832291	89
0	1458	235.740730364275	88
0	1461	236.740730364275	87
0	1467	237.074724931317	88
0	1468	237.074724931317	89
0	1472	237.603356878675	90
0	1473	237.603356878675	91
0	1474	237.740730364275	90
0	1477	238.740730364275	89
0	1483	239.030183486333	90
0	1484	239.030183486333	91
0	1488	239.487101896803	92
0	1489	239.487101896803	93
0	1490	239.740730364275	92
0	1493	240.740730364275	91
0	1496	241.740730364275	90
0	1499	242.740730364275	89
0	1505	243.50639072864	90
0	1506	243.50639072864	91
0	1507	243.740730364275	90
0	1510	244.740730364275	89
0	1516	245.12567569511	90
0	1517	245.12567569511	91
0	1518	245.740730364275	90
0	1524	246.335276935307	91
0	1525	246.335276935307	92
0	1529	246.454288969122	93
0	1530	246.454288969122	94
0	1531	246.740730364275	93
0	1534	247.740730364275	92
0	1537	248.740730364275	91
0	1543	249.18175748361	92
0	1544	249.18175748361	93
0	1545	249.740730364275	92
0	1548	250.740730364275	91
0	1551	251.740730364275	90
0	1557	252.56965014937	91
0	1558	252.56965014937	92
0	1559	252.740730364275	91
0	1565	253.686183831034	92
0	1566	253.686183831034	93
0	1567	253.740730364275	92
0	1570	254.740730364275	91
0	1573	255.740730364275	90
0	1579	256.068745098182	91
0	1580	256.068745098182	92
0	1581	256.740730364275	91
0	1584	257.740730364275	90
0	1587	258.740730364275	89
0	1593	259.566431579671	90
0	1594	259.566431579671	91
0	1595	259.740730364275	90
0	1601	259.948422459256	91
0	1602	259.948422459256	92
0	1606	260.538834147859	93
0	1607	260.538834147859	94
0	1608	260.740730364275	93
0	1611	261.740730364275	92
0	1617	262.565414552289	93
0	1618	262.565414552289	94
0	1619	262.740730364275	93
0	1622	263.740730364275	92
0	1628	263.961550655923	93
0	1629	263.961550655923	94
0	1630	264.740730364275	93
0	1636	265.246983339168	94
0	1637	265.246983339168	95
0	1641	265.597668308265	96
0	1642	265.597668308265	97
0	1643	265.740730364275	96
0	1646	266.740730364275	95
0	1652	267.67681219796	96
0	1653	267.67681219796	97
0	1654	267.740730364275	96
0	1660	268.435737534558	97
0	1661	268.435737534558	98
0	1662	268.740730364275	97
0	1665	269.740730364275	96
0	1668	270.740730364275	95
0	1674	271.563222209684	96
0	1675	271.563222209684	97
0	1676	271.740730364275	96
0	1679	272.740730364275	95
0	1682	273.740730364275	94
0	1685	274.740730364275	93
0	1691	274.897061512687	94
0	1692	274.897061512687	95
0	1693	275.740730364275	94
0	1699	276.047202557658	95
0	1700	276.047202557658	96
0	1701	276.740730364275	95
0	1707	277.731419581961	96
0	1708	277.731419581961	97
0	1709	277.740730364275	96
0	1715	277.886108580981	97
0	1716	277.886108580981	98
0	1717	278.740730364275	97
0	1723	279.556229459184	98
0	1724	279.556229459184	99
0	1725	279.740730364275	98
0	1728	280.740730364275	97
0	1734	281.126848693249	98
0	1735	281.126848693249	99
0	1736	281.740730364275	98
0	1739	282.740730364275	97
0	1745	283.319051977419	98
0	1746	283.319051977419	99
0	1747	283.740730364275	98
0	1750	284.740730364275	97
0	1753	285.740730364275	96
0	1759	286.163498860278	97
0	1760	286.163498860278	98
0	1761	286.740730364275	97
0	1764	287.740730364275	96
0	1767	288.740730364275	95
0	1773	289.219599299421	96
0	1774	289.219599299421	97
0	1775	289.740730364275	96
0	1778	290.740730364275	95
0	1784	291.495305721503	96
0	1785	291.495305721503	97
0	1786	291.740730364275	96
0	1792	292.630908284786	97
0	1793	292.630908284786	98
0	1794	292.740730364275	97
0	1800	293.211582479859	98
0	1801	293.211582479859	99
0	1805	293.309843080729	100
0	1806	293.309843080729	101
0	1807	293.740730364275	100
0	1813	293.855064408233	101
0	1814	293.855064408233	102
0	1815	294.740730364275	101
0	1818	295.740730364275	100
0	1821	296.740730364275	99
0	1824	297.740730364275	98
0	1830	298.465965307075	99
0	1831	298.465965307075	100
0	1832	298.740730364275	99
0	1838	298.780886017394	100
0	1839	298.780886017394	101
0	1840	299.740730364275	100
0	1843	300.740730364275	99
0	1849	301.095236347489	100
0	1850	301.095236347489	101
0	1851	301.740730364275	100
0	1854	302.740730364275	99
0	1857	303.740730364275	98
0	1863	304.336809725085	99
0	1864	304.336809725085	100
0	1865	304.740730364275	99
0	1871	305.58344055134	100
0	1872	305.58344055134	101
0	1873	305.740730364275	100
0	1876	306.740730364275	99
0	1882	307.468244456685	100
0	1883	307.468244456685	101
0	1884	307.740730364275	100
0	1890	308.581497298059	101
0	1891	308.581497298059	102
0	1892	308.740730364275	101
0	1895	309.740730364275	100
0	1901	310.145428713177	101
0	1902	310.145428713177	102
0	1903	310.740730364275	101
0	1909	311.477273880464	102
0	1910	311.477273880464	103
0	1911	311.740730364275	102
0	1917	312.203373233037	103
0	1918	312.203373233037	104
0	1919	312.740730364275	103
0	1922	313.740730364275	102
0	1925	314.740730364275	101
0	1931	315.122072254917	102
0	1932	315.122072254917	103
0	1933	315.740730364275	102
0	1936	316.740730364275	101
0	1939	317.740730364275	100
0	1945	318.376390511394	101
0	1946	318.376390511394	102
0	1947	318.740730364275	101
0	1953	319.72967414106	102
0	1954	319.72967414106	103
0	1955	319.740730364275	102
0	1961	319.768554234563	103
0	1962	319.768554234563	104
0	1963	320.740730364275	103
0	1969	320.806022157133	104
0	1970	320.806022157133	105
0	1971	321.740730364275	104
0	1977	321.759437445455	105
0	1978	321.759437445455	106
0	1982	322.605849771484	107
0	1983	322.605849771484	108
0	1984	322.740730364275	107
0	1990	323.371583998892	108
0	1991	323.371583998892	109
0	1992	323.740730364275	108
0	1995	324.740730364275	107
0	2001	324.916290273131	108
0	2002	324.916290273131	109
0	2003	325.740730364275	108
0	2009	326.252117583554	109
0	2010	326.252117583554	110
0	2011	326.740730364275	109
0	2014	327.740730364275	108
0	2020	328.290160176012	109
0	2021	328.290160176012	110
0	2022	328.740730364275	109
0	2025	329.740730364275	108
0	2031	329.804559321843	109
0	2032	329.804559321843	110
0	2033	330.740730364275	109
0	2036	331.740730364275	108
0	2042	331.767194523557	109
0	2043	331.767194523557	110
0	2047	332.149230491394	111
0	2048	332.149230491394	112
0	2049	332.740730364275	111
0	2052	333.740730364275	110
0	2055	334.740730364275	109
0	2061	335.311946872751	110
0	2062	335.311946872751	111
0	2063	335.740730364275	110
0	2066	336.740730364275	109
0	2072	337.67715711827	110
0	2073	337.67715711827	111
0	2074	337.740730364275	110
0	2077	338.740730364275	109
0	2083	339.305064033317	110
0	2084	339.305064033317	111
0	2085	339.740730364275	110
0	2091	340.459047147445	111
0	2092	340.459047147445	112
0	2096	340.596351374995	113
0	2097	340.596351374995	114
0	2098	340.740730364275	113
0	2104	341.232245924721	114
0	2105	341.232245924721	115
0	2109	341.390215937188	116
0	2110	341.390215937188	117
0	2111	341.740730364275	116
0	2114	342.740730364275	115
0	2117	343.740730364275	114
0	2123	344.415908989627	115
0	2124	344.415908989627	116
0	2128	344.462291294149	117
0	2129	344.462291294149	118
0	2130	344.740730364275	117
0	2136	345.132690715284	118
0	2137	345.132690715284	119
0	2138	345.740730364275	118
0	2144	345.882201839482	119
0	2145	345.882201839482	120
0	2146	346.740730364275	119
0	2149	347.740730364275	118
0	2152	348.740730364275	117
0	2158	348.896168437932	118
0	2159	348.896168437932	119
0	2160	349.740730364275	118
0	2166	350.638184885508	119
0	2167	350.638184885508	120
0	2168	350.740730364275	119
0	2171	351.740730364275	118
0	2174	352.740730364275	117
0	2177	353.740730364275	116
0	2180	354.740730364275	115
0	2186	355.114545150517	116
0	2187	355.114545150517	117
0	2188	355.740730364275	116
0	2194	356.234957947036	117
0	2195	356.234957947036	118
0	2196	356.740730364275	117
0	2199	357.740730364275	116
0	2202	358.740730364275	115
0	2205	359.740730364275	114
0	2208	360.740730364275	113
0	2214	361.52146063003	114
0	2215	361.52146063003	115
0	2216	361.740730364275	114
0	2222	362.68669875966	115
0	2223	362.68669875966	116
0	2224	362.740730364275	115
0	2227	363.740730364275	114
0	2233	364.255094509216	115
0	2234	364.255094509216	116
0	2238	364.417152995492	117
0	2239	364.417152995492	118
0	2240	364.740730364275	117
0	2243	365.740730364275	116
0	2246	366.740730364275	115
0	2252	367.073109041834	116
0	2253	367.073109041834	117
0	2257	367.426920085585	118
0	2258	367.426920085585	119
0	2262	367.712824709854	120
0	2263	367.712824709854	121
0	2264	367.740730364275	120
0	2267	368.740730364275	119
0	2273	369.2288776126	120
0	2274	369.2288776126	121
0	2275	369.740730364275	120
0	2281	370.255802901373	121
0	2282	370.255802901373	122
0	2286	370.509099369827	123
0	2287	370.509099369827	124
0	2288	370.740730364275	123
0	2294	370.845315502546	124
0	2295	370.845315502546	125
0	2299	371.519625981243	126
0	2300	371.519625981243	127
0	2301	371.740730364275	126
0	2304	372.740730364275	125
0	2307	373.740730364275	124
0	2313	374.2174067432	125
0	2314	374.2174067432	126
0	2315	374.740730364275	125
0	2321	375.22493437649	126
0	2322	375.22493437649	127
0	2323	375.740730364275	126
0	2329	376.098992967124	127
0	2330	376.098992967124	128
0	2334	376.436902312838	129
0	2335	376.436902312838	130
0	2336	376.740730364275	129
0	2342	377.038759611633	130
0	2343	377.038759611633	131
0	2344	377.740730364275	130
0	2347	378.740730364275	129
0	2353	379.24725271255	130
0	2354	379.24725271255	131
0	2355	379.740730364275	130
0	2358	380.740730364275	129
0	2364	381.207925959162	130
0	2365	381.207925959162	131
0	2366	381.740730364275	130
0	2372	382.292110652404	131
0	2373	382.292110652404	132
0	2374	382.740730364275	131
0	2377	383.740730364275	130
0	2383	384.267466537933	131
0	2384	384.267466537933	132
0	2385	384.740730364275	131
0	2391	385.123706602293	132
0	2392	385.123706602293	133
0	2396	385.340761953007	134
0	2397	385.340761953007	135
0	2401	385.708057001422	136
0	2402	385.708057001422	137
0	2403	385.740730364275	136
0	2409	385.854406118673	137
0	2410	385.854406118673	138
0	2411	386.740730364275	137
0	2414	387.740730364275	136
0	2420	387.942250844557	137
0	2421	387.942250844557	138
0	2422	388.740730364275	137
0	2425	389.740730364275	136
0	2428	390.740730364275	135
0	2434	391.601920387501	136
0	2435	391.601920387501	137
0	2439	391.697236631982	138
0	2440	391.697236631982	139
0	2441	391.740730364275	138
0	2447	392.487652219661	139
0	2448	392.487652219661	140
0	2449	392.740730364275	139
0	2452	393.740730364275	138
0	2455	394.740730364275	137
0	2461	395.026310144091	138
0	2462	395.026310144091	139
0	2466	395.297356757676	140
0	2467	395.297356757676	141
0	2468	395.740730364275	140
0	2471	396.740730364275	139
0	2477	396.95538421087	140
0	2478	396.95538421087	141
0	2482	396.958360531001	142
0	2483	396.958360531001	143
0	2484	397.740730364275	142
0	2490	398.114035485198	143
0	2491	398.114035485198	144
0	2492	398.740730364275	143
0	2495	399.740730364275	142
0	2501	400.713915520517	143
0	2502	400.713915520517	144
0	2503	400.740730364275	143
0	2509	401.137214327287	144
0	2510	401.137214327287	145
0	2514	401.154824459376	146
0	2515	401.154824459376	147
0	2519	401.531996269292	148
0	2520	401.531996269292	149
0	2524	401.550332293144	150
0	2525	401.550332293144	151
0	2529	401.57773156555	152
0	2530	401.57773156555	153
0	2531	401.740730364275	152
0	2537	402.421892142679	153
0	2538	402.421892142679	154
0	2539	402.740730364275	153
0	2542	403.740730364275	152
0	2545	404.740730364275	151
0	2551	405.428723961317	152
0	2552	405.428723961317	153
0	2553	405.740730364275	152
0	2556	406.740730364275	151
0	2562	407.210378787857	152
0	2563	407.210378787857	153
0	2564	407.740730364275	152
0	2567	408.740730364275	151
0	2573	409.346230574383	152
0	2574	409.346230574383	153
0	2575	409.740730364275	152
0	2578	410.740730364275	151
0	2584	411.302885619256	152
0	2585	411.302885619256	153
0	2586	411.740730364275	152
0	2589	412.740730364275	151
0	2592	413.740730364275	150
0	2598	414.503465003536	151
0	2599	414.503465003536	152
0	2600	414.740730364275	151
0	2606	415.283975699332	152
0	2607	415.283975699332	153
0	2608	415.740730364275	152
0	2611	416.740730364275	151
0	2614	417.740730364275	150
0	2617	418.740730364275	149
0	2623	419.034261181802	150
0	2624	419.034261181802	151
0	2628	419.299747621668	152
0	2629	419.299747621668	153
0	2630	419.740730364275	152
0	2633	420.740730364275	151
0	2636	421.740730364275	150
0	2642	422.315056994976	151
0	2643	422.315056994976	152
0	2647	422.665039727068	153
0	2648	422.665039727068	154
0	2649	422.740730364275	153
0	2655	422.997180679431	154
0	2656	422.997180679431	155
0	2657	423.740730364275	154
0	2660	424.740730364275	153
0	2666	424.962655674751	154
0	2667	424.962655674751	155
0	2671	425.440309645927	156
0	2672	425.440309645927	157
0	2673	425.740730364275	156
0	2679	426.54475967319	157
0	2680	426.54475967319	158
0	2681	426.740730364275	157
0	2684	427.740730364275	156
0	2687	428.740730364275	155
0	2693	429.556902167548	156
0	2694	429.556902167548	157
0	2695	429.740730364275	156
0	2698	430.740730364275	155
0	2704	430.79977335984	156
0	2705	430.79977335984	157
0	2706	431.740730364275	156
0	2712	431.806607466557	157
0	2713	431.806607466557	158
0	2714	432.740730364275	157
0	2717	433.740730364275	156
0	2720	434.740730364275	155
0	2726	435.233055809859	156
0	2727	435.233055809859	157
0	2731	435.663577919584	158
0	2732	435.663577919584	159
0	2733	435.740730364275	158
0	2739	435.941423266122	159
0	2740	435.941423266122	160
0	2741	436.740730364275	159
0	2744	437.740730364275	158
0	2747	438.740730364275	157
0	2753	439.727839339609	158
0	2754	439.727839339609	159
0	2755	439.740730364275	158
0	2758	440.740730364275	157
0	2764	440.808926251474	158
0	2765	440.808926251474	159
0	2766	441.740730364275	158
0	2769	442.740730364275	157
0	2775	443.244019772985	158
0	2776	443.244019772985	159
0	2777	443.740730364275	158
0	2783	444.231281002294	159
0	2784	444.231281002294	160
0	2788	444.47624325405	161
0	2789	444.47624325405	162
0	2790	444.740730364275	161
0	2793	445.740730364275	160
0	2796	446.740730364275	159
0	2799	447.740730364275	158
0	2802	448.740730364275	157
0	2808	449.234630082051	158
0	2809	449.234630082051	159
0	2810	449.740730364275	158
0	2816	450.097286638055	159
0	2817	450.097286638055	160
0	2818	450.740730364275	159
0	2824	450.779448640161	160
0	2825	450.779448640161	161
0	2826	451.740730364275	160
0	2829	452.740730364275	159
0	2835	453.62177096764	160
0	2836	453.62177096764	161
0	2837	453.740730364275	160
0	2840	454.740730364275	159
0	2846	455.382258211588	160
0	2847	455.382258211588	161
0	2848	455.740730364275	160
0	2851	456.740730364275	159
0	2857	457.418580751646	160
0	2858	457.418580751646	161
0	2859	457.740730364275	160
0	2865	458.15949790109	161
0	2866	458.15949790109	162
0	2867	458.740730364275	161
0	2870	459.740730364275	160
0	2876	460.606348261768	161
0	2877	460.606348261768	162
0	2878	460.740730364275	161
0	2884	460.977669742594	162
0	2885	460.977669742594	163
0	2889	461.69577747792	164
0	2890	461.69577747792	165
0	2891	461.740730364275	164
0	2894	462.740730364275	163
0	2900	463.205786267734	164
0	2901	463.205786267734	165
0	2902	463.740730364275	164
0	2905	464.740730364275	163
0	2908	465.740730364275	162
0	2914	465.95750090798	163
0	2915	465.95750090798	164
0	2919	466.211418859632	165
0	2920	466.211418859632	166
0	2921	466.740730364275	165
0	2924	467.740730364275	164