version 3
run k_MM1_rand-2-20221127-16:03:20-5740
attr configname k_MM1_rand
attr datetime 20221127-16:03:20
attr datetimef 20221127-160320
attr experiment k_MM1_rand
attr inifile omnetpp.ini
attr iterationvars "$time=1.0, $num=1, $0=47853, $1=24674, $2=96433"
attr iterationvarsd time=1.0/num=1/47853/24674/96433
attr iterationvarsf time=1.0,num=1,47853,24674,96433-
attr measurement "$time=1.0, $num=1, $0=47853, $1=24674, $2=96433"
attr network randkMM1
attr processid 5740
attr repetition 2
attr replication #2
attr resultdir results
attr runnumber 2
attr seedset 2
itervar num 1
itervar time 1.0
config description "MM1 module k-times random"
config network randkMM1
config **.source.interArrivalTime "truncnormal(0.5s, 1.5s)"
config **.serviceTime 1.0s
config **.c 1
config **.capacity 10000
config record-eventlog false
config **.scalar-recording true
config **.vector-recording true
config repeat 4
config seed-1-mt 47853
config seed-2-mt 24674
config seed-3-mt 96433
config output-vector-file k_MM1_rand-1-1.0-results/2.vec
config output-scalar-file k_MM1_rand-1-1.0-results/2.sca

vector 0 randkMM1.mm1[0] queueLength:vector ETV
attr interpolationmode none
attr recordingmode vector
attr title "queue length"
vector 1 randkMM1.mm1[0] util:vector ETV
attr interpolationmode none
attr recordingmode vector
attr title resources
0	5	10	1
0	6	11	0
0	12	11.136797159617	1
0	13	11.136797159617	2
0	17	11.949290711869	3
0	18	11.949290711869	4
0	19	12	3
0	22	13	2
0	25	14	1
0	31	14.242731667783	2
0	32	14.242731667783	3
0	33	15	2
0	39	15.501763703442	3
0	40	15.501763703442	4
0	44	15.681198706094	5
0	45	15.681198706094	6
0	46	16	5
0	49	17	4
0	55	17.701240617159	5
0	56	17.701240617159	6
0	57	18	5
0	60	19	4
0	66	19.069942150721	5
0	67	19.069942150721	6
0	71	19.389007835595	7
0	72	19.389007835595	8
0	76	19.748573144259	9
0	77	19.748573144259	10
0	78	20	9
0	81	21	8
0	87	21.534734375291	9
0	88	21.534734375291	10
0	89	22	9
0	95	22.63477637592	10
0	96	22.63477637592	11
0	97	23	10
0	103	23.004860232807	11
0	104	23.004860232807	12
0	105	24	11
0	111	24.686483855437	12
0	112	24.686483855437	13
0	113	25	12
0	119	25.467605514116	13
0	120	25.467605514116	14
0	121	26	13
0	127	26.156627710766	14
0	128	26.156627710766	15
0	132	26.734876383392	16
0	133	26.734876383392	17
0	134	27	16
0	140	27.922036246783	17
0	141	27.922036246783	18
0	142	28	17
0	148	28.882889983329	18
0	149	28.882889983329	19
0	150	29	18
0	153	30	17
0	156	31	16
0	159	32	15
0	165	32.043361192932	16
0	166	32.043361192932	17
0	167	33	16
0	173	33.988030295405	17
0	174	33.988030295405	18
0	175	34	17
0	178	35	16
0	184	35.019240064184	17
0	185	35.019240064184	18
0	186	36	17
0	192	36.915689984719	18
0	193	36.915689984719	19
0	194	37	18
0	200	37.776339765173	19
0	201	37.776339765173	20
0	202	38	19
0	205	39	18
0	208	40	17
0	211	41	16
0	217	41.422037033265	17
0	218	41.422037033265	18
0	222	41.815575243708	19
0	223	41.815575243708	20
0	224	42	19
0	230	42.891176600522	20
0	231	42.891176600522	21
0	232	43	20
0	238	43.110081720813	21
0	239	43.110081720813	22
0	240	44	21
0	246	44.719245829361	22
0	247	44.719245829361	23
0	248	45	22
0	254	45.956671962459	23
0	255	45.956671962459	24
0	256	46	23
0	259	47	22
0	265	47.04480715254	23
0	266	47.04480715254	24
0	267	48	23
0	273	48.178289604918	24
0	274	48.178289604918	25
0	278	48.955855273263	26
0	279	48.955855273263	27
0	280	49	26
0	286	49.448399506729	27
0	287	49.448399506729	28
0	288	50	27
0	294	50.375492938671	28
0	295	50.375492938671	29
0	296	51	28
0	299	52	27
0	302	53	26
0	305	54	25
0	308	55	24
0	314	55.339124908998	25
0	315	55.339124908998	26
0	316	56	25
0	322	56.724267450546	26
0	323	56.724267450546	27
0	324	57	26
0	330	57.32976735032	27
0	331	57.32976735032	28
0	332	58	27
0	338	58.247972902338	28
0	339	58.247972902338	29
0	340	59	28
0	343	60	27
0	349	60.076502453085	28
0	350	60.076502453085	29
0	351	61	28
0	354	62	27
0	357	63	26
0	363	63.113360750623	27
0	364	63.113360750623	28
0	365	64	27
0	368	65	26
0	371	66	25
0	377	66.06256349946	26
0	378	66.06256349946	27
0	382	66.365282904035	28
0	383	66.365282904035	29
0	387	66.715548607005	30
0	388	66.715548607005	31
0	389	67	30
0	395	67.834174691101	31
0	396	67.834174691101	32
0	397	68	31
0	400	69	30
0	406	69.765198911612	31
0	407	69.765198911612	32
0	408	70	31
0	414	70.042210038223	32
0	415	70.042210038223	33
0	419	70.70508892625	34
0	420	70.70508892625	35
0	421	71	34
0	424	72	33
0	430	72.715887884973	34
0	431	72.715887884973	35
0	432	73	34
0	438	73.932819392812	35
0	439	73.932819392812	36
0	440	74	35
0	443	75	34
0	449	75.697230028393	35
0	450	75.697230028393	36
0	454	75.932978879958	37
0	455	75.932978879958	38
0	456	76	37
0	459	77	36
0	462	78	35
0	468	78.803782549142	36
0	469	78.803782549142	37
0	470	79	36
0	473	80	35
0	479	80.027478162304	36
0	480	80.027478162304	37
0	484	80.662153953954	38
0	485	80.662153953954	39
0	486	81	38
0	489	82	37
0	495	82.292243645615	38
0	496	82.292243645615	39
0	497	83	38
0	503	83.289712343674	39
0	504	83.289712343674	40
0	505	84	39
0	508	85	38
0	511	86	37
0	517	86.827372286915	38
0	518	86.827372286915	39
0	519	87	38
0	522	88	37
0	525	89	36
0	531	89.432799355547	37
0	532	89.432799355547	38
0	533	90	37
0	539	90.158717729012	38
0	540	90.158717729012	39
0	541	91	38
0	547	91.840178907912	39
0	548	91.840178907912	40
0	549	92	39
0	555	92.939522994469	40
0	556	92.939522994469	41
0	557	93	40
0	560	94	39
0	566	94.367733670422	40
0	567	94.367733670422	41
0	568	95	40
0	571	96	39
0	574	97	38
0	580	97.865912853656	39
0	581	97.865912853656	40
0	582	98	39
0	585	99	38
0	591	99.915482658628	39
0	592	99.915482658628	40
0	593	100	39
0	596	101	38
0	599	102	37
0	605	102.040945029784	38
0	606	102.040945029784	39
0	607	103	38
0	610	104	37
0	616	104.530469128702	38
0	617	104.530469128702	39
0	621	104.728168604713	40
0	622	104.728168604713	41
0	623	105	40
0	626	106	39
0	632	106.895988532527	40
0	633	106.895988532527	41
0	634	107	40
0	640	107.886402846017	41
0	641	107.886402846017	42
0	645	107.987355544066	43
0	646	107.987355544066	44
0	647	108	43
0	650	109	42
0	656	109.524888537229	43
0	657	109.524888537229	44
0	658	110	43
0	664	110.460137159655	44
0	665	110.460137159655	45
0	666	111	44
0	672	111.238435639794	45
0	673	111.238435639794	46
0	677	111.953756744485	47
0	678	111.953756744485	48
0	679	112	47
0	682	113	46
0	685	114	45
0	691	114.217236937433	46
0	692	114.217236937433	47
0	693	115	46
0	699	115.286011582049	47
0	700	115.286011582049	48
0	701	116	47
0	707	116.275329686009	48
0	708	116.275329686009	49
0	709	117	48
0	715	117.041096249649	49
0	716	117.041096249649	50
0	720	117.357525584342	51
0	721	117.357525584342	52
0	722	118	51
0	725	119	50
0	731	119.528098710645	51
0	732	119.528098710645	52
0	733	120	51
0	736	121	50
0	742	121.322284941065	51
0	743	121.322284941065	52
0	747	121.361219516381	53
0	748	121.361219516381	54
0	749	122	53
0	752	123	52
0	755	124	51
0	761	124.604255441507	52
0	762	124.604255441507	53
0	766	124.629702228154	54
0	767	124.629702228154	55
0	768	125	54
0	771	126	53
0	777	126.264348387752	54
0	778	126.264348387752	55
0	782	126.935054355188	56
0	783	126.935054355188	57
0	784	127	56
0	787	128	55
0	790	129	54
0	796	129.002688084978	55
0	797	129.002688084978	56
0	801	129.30813930025	57
0	802	129.30813930025	58
0	803	130	57
0	806	131	56
0	809	132	55
0	815	132.14836006131	56
0	816	132.14836006131	57
0	820	132.793619532781	58
0	821	132.793619532781	59
0	822	133	58
0	825	134	57
0	828	135	56
0	834	135.620813405492	57
0	835	135.620813405492	58
0	836	136	57
0	842	136.759679514022	58
0	843	136.759679514022	59
0	844	137	58
0	850	137.602862210228	59
0	851	137.602862210228	60
0	852	138	59
0	855	139	58
0	861	139.797990178205	59
0	862	139.797990178205	60
0	863	140	59
0	869	140.505674704981	60
0	870	140.505674704981	61
0	871	141	60
0	877	141.471764292246	61
0	878	141.471764292246	62
0	882	141.690427876082	63
0	883	141.690427876082	64
0	884	142	63
0	887	143	62
0	893	143.683897218321	63
0	894	143.683897218321	64
0	895	144	63
0	898	145	62
0	904	145.162336386836	63
0	905	145.162336386836	64
0	909	145.271238990545	65
0	910	145.271238990545	66
0	911	146	65
0	914	147	64
0	920	147.367411011849	65
0	921	147.367411011849	66
0	922	148	65
0	925	149	64
0	931	149.938011535512	65
0	932	149.938011535512	66
0	933	150	65
0	936	151	64
0	942	151.151948471803	65
0	943	151.151948471803	66
0	947	151.589229431954	67
0	948	151.589229431954	68
0	949	152	67
0	955	152.13613032811	68
0	956	152.13613032811	69
0	960	152.595533536537	70
0	961	152.595533536537	71
0	962	153	70
0	968	153.449537314424	71
0	969	153.449537314424	72
0	970	154	71
0	973	155	70
0	979	155.056905169518	71
0	980	155.056905169518	72
0	981	156	71
0	984	157	70
0	990	157.905808367123	71
0	991	157.905808367123	72
0	992	158	71
0	995	159	70
0	998	160	69
0	1004	160.998807290693	70
0	1005	160.998807290693	71
0	1006	161	70
0	1009	162	69
0	1015	162.527157274328	70
0	1016	162.527157274328	71
0	1017	163	70
0	1023	163.188515431473	71
0	1024	163.188515431473	72
0	1025	164	71
0	1028	165	70
0	1034	165.566196356976	71
0	1035	165.566196356976	72
0	1036	166	71
0	1039	167	70
0	1045	167.753592492648	71
0	1046	167.753592492648	72
0	1047	168	71
0	1050	169	70
0	1056	169.719288729087	71
0	1057	169.719288729087	72
0	1058	170	71
0	1064	170.082498743606	72
0	1065	170.082498743606	73
0	1069	170.682103173145	74
0	1070	170.682103173145	75
0	1071	171	74
0	1077	171.340601393698	75
0	1078	171.340601393698	76
0	1082	171.416704724691	77
0	1083	171.416704724691	78
0	1084	172	77
0	1087	173	76
0	1093	173.12379676721	77
0	1094	173.12379676721	78
0	1095	174	77
0	1101	174.823640586755	78
0	1102	174.823640586755	79
0	1103	175	78
0	1106	176	77
0	1112	176.238472648178	78
0	1113	176.238472648178	79
0	1117	176.979618853817	80
0	1118	176.979618853817	81
0	1119	177	80
0	1122	178	79
0	1128	178.950586359236	80
0	1129	178.950586359236	81
0	1130	179	80
0	1133	180	79
0	1136	181	78
0	1142	181.188792049623	79
0	1143	181.188792049623	80
0	1147	181.888287823674	81
0	1148	181.888287823674	82
0	1149	182	81
0	1155	182.258660533679	82
0	1156	182.258660533679	83
0	1157	183	82
0	1163	183.218179040549	83
0	1164	183.218179040549	84
0	1165	184	83
0	1171	184.975530975247	84
0	1172	184.975530975247	85
0	1173	185	84
0	1176	186	83
0	1182	186.31459594821	84
0	1183	186.31459594821	85
0	1184	187	84
0	1190	187.262003958724	85
0	1191	187.262003958724	86
0	1192	188	85
0	1195	189	84
0	1201	189.470451936039	85
0	1202	189.470451936039	86
0	1206	189.702651447284	87
0	1207	189.702651447284	88
0	1208	190	87
0	1211	191	86
0	1217	191.57714649452	87
0	1218	191.57714649452	88
0	1219	192	87
0	1222	193	86
0	1225	194	85
0	1231	194.49998823697	86
0	1232	194.49998823697	87
0	1233	195	86
0	1239	195.044788880528	87
0	1240	195.044788880528	88
0	1244	195.655259188906	89
0	1245	195.655259188906	90
0	1246	196	89
0	1252	196.098940961542	90
0	1253	196.098940961542	91
0	1254	197	90
0	1260	197.075266596646	91
0	1261	197.075266596646	92
0	1262	198	91
0	1265	199	90
0	1271	199.156997064547	91
0	1272	199.156997064547	92
0	1276	199.697027438616	93
0	1277	199.697027438616	94
0	1278	200	93
0	1281	201	92
0	1284	202	91
0	1287	203	90
0	1293	203.122469218505	91
0	1294	203.122469218505	92
0	1295	204	91
0	1301	204.596191255102	92
0	1302	204.596191255102	93
0	1303	205	92
0	1306	206	91
0	1309	207	90
0	1315	207.458748744025	91
0	1316	207.458748744025	92
0	1317	208	91
0	1320	209	90
0	1323	210	89
0	1329	210.44742323656	90
0	1330	210.44742323656	91
0	1331	211	90
0	1334	212	89
0	1340	212.179342115445	90
0	1341	212.179342115445	91
0	1342	213	90
0	1348	213.388762944979	91
0	1349	213.388762944979	92
0	1350	214	91
0	1353	215	90
0	1359	215.984314654685	91
0	1360	215.984314654685	92
0	1361	216	91
0	1364	217	90
0	1367	218	89
0	1373	218.628201233705	90
0	1374	218.628201233705	91
0	1375	219	90
0	1378	220	89
0	1384	220.611885408053	90
0	1385	220.611885408053	91
0	1386	221	90
0	1389	222	89
0	1392	223	88
0	1398	223.961759293602	89
0	1399	223.961759293602	90
0	1400	224	89
0	1403	225	88
0	1409	225.378422190173	89
0	1410	225.378422190173	90
0	1411	226	89
0	1417	226.952480287088	90
0	1418	226.952480287088	91
0	1419	227	90
0	1425	227.399621334023	91
0	1426	227.399621334023	92
0	1427	228	91
0	1433	228.089330898787	92
0	1434	228.089330898787	93
0	1438	228.593549534056	94
0	1439	228.593549534056	95
0	1440	229	94
0	1446	229.435199955332	95
0	1447	229.435199955332	96
0	1451	229.844910115141	97
0	1452	229.844910115141	98
0	1453	230	97
0	1459	230.090267263028	98
0	1460	230.090267263028	99
0	1464	230.469398643825	100
0	1465	230.469398643825	101
0	1466	231	100
0	1472	231.889088632752	101
0	1473	231.889088632752	102
0	1474	232	101
0	1480	232.418421694604	102
0	1481	232.418421694604	103
0	1482	233	102
0	1488	233.187356423786	103
0	1489	233.187356423786	104
0	1493	233.257227276401	105
0	1494	233.257227276401	106
0	1495	234	105
0	1501	234.139693144767	106
0	1502	234.139693144767	107
0	1506	234.185773697053	108
0	1507	234.185773697053	109
0	1511	234.204757545976	110
0	1512	234.204757545976	111
0	1513	235	110
0	1516	236	109
0	1519	237	108
0	1525	237.604720132752	109
0	1526	237.604720132752	110
0	1527	238	109
0	1530	239	108
0	1533	240	107
0	1536	241	106
0	1542	241.061482233089	107
0	1543	241.061482233089	108
0	1544	242	107
0	1550	242.833400456778	108
0	1551	242.833400456778	109
0	1552	243	108
0	1558	243.666480043353	109
0	1559	243.666480043353	110
0	1563	243.902771563475	111
0	1564	243.902771563475	112
0	1565	244	111
0	1571	244.592705301236	112
0	1572	244.592705301236	113
0	1573	245	112
0	1576	246	111
0	1582	246.010156388123	112
0	1583	246.010156388123	113
0	1584	247	112
0	1587	248	111
0	1593	248.167913523307	112
0	1594	248.167913523307	113
0	1595	249	112
0	1598	250	111
0	1601	251	110
0	1607	251.425902520479	111
0	1608	251.425902520479	112
0	1609	252	111
0	1612	253	110
0	1615	254	109
0	1621	254.884283324151	110
0	1622	254.884283324151	111
0	1623	255	110
0	1626	256	109
0	1629	257	108
0	1635	257.516649250117	109
0	1636	257.516649250117	110
0	1637	258	109
0	1643	258.169383721956	110
0	1644	258.169383721956	111
0	1645	259	110
0	1648	260	109
0	1654	260.744346650017	110
0	1655	260.744346650017	111
0	1656	261	110
0	1659	262	109
0	1665	262.566298467985	110
0	1666	262.566298467985	111
0	1667	263	110
0	1673	263.305503499158	111
0	1674	263.305503499158	112
0	1678	263.541632983353	113
0	1679	263.541632983353	114
0	1680	264	113
0	1686	264.516460256555	114
0	1687	264.516460256555	115
0	1688	265	114
0	1694	265.554898952731	115
0	1695	265.554898952731	116
0	1699	265.631561904187	117
0	1700	265.631561904187	118
0	1701	266	117
0	1707	266.135678805115	118
0	1708	266.135678805115	119
0	1709	267	118
0	1715	267.636546845617	119
0	1716	267.636546845617	120
0	1717	268	119
0	1723	268.313869440305	120
0	1724	268.313869440305	121
0	1725	269	120
0	1728	270	119
0	1731	271	118
0	1737	271.7947925201	119
0	1738	271.7947925201	120
0	1739	272	119
0	1745	272.376076904325	120
0	1746	272.376076904325	121
0	1747	273	120
0	1753	273.844170947939	121
0	1754	273.844170947939	122
0	1755	274	121
0	1761	274.823871824948	122
0	1762	274.823871824948	123
0	1763	275	122
0	1769	275.915501056024	123
0	1770	275.915501056024	124
0	1771	276	123
0	1774	277	122
0	1777	278	121
0	1780	279	120
0	1786	279.601193620805	121
0	1787	279.601193620805	122
0	1788	280	121
0	1794	280.830047361393	122
0	1795	280.830047361393	123
0	1796	281	122
0	1802	281.808013094727	123
0	1803	281.808013094727	124
0	1804	282	123
0	1807	283	122
0	1810	284	121
0	1816	284.157819467469	122
0	1817	284.157819467469	123
0	1818	285	122
0	1824	285.975288074257	123
0	1825	285.975288074257	124
0	1826	286	123
0	1829	287	122
0	1832	288	121
0	1838	288.970385357126	122
0	1839	288.970385357126	123
0	1840	289	122
0	1846	289.919795371017	123
0	1847	289.919795371017	124
0	1851	289.995776765485	125
0	1852	289.995776765485	126
0	1853	290	125
0	1856	291	124
0	1862	291.449200315654	125
0	1863	291.449200315654	126
0	1864	292	125
0	1870	292.884263208742	126
0	1871	292.884263208742	127
0	1872	293	126
0	1878	293.378469800731	127
0	1879	293.378469800731	128
0	1883	293.870998624752	129
0	1884	293.870998624752	130
0	1885	294	129
0	1891	294.350405962271	130
0	1892	294.350405962271	131
0	1893	295	130
0	1899	295.05188905735	131
0	1900	295.05188905735	132
0	1904	295.636553014691	133
0	1905	295.636553014691	134
0	1906	296	133
0	1912	296.634540391458	134
0	1913	296.634540391458	135
0	1914	297	134
0	1920	297.389177828701	135
0	1921	297.389177828701	136
0	1922	298	135
0	1925	299	134
0	1931	299.362897672239	135
0	1932	299.362897672239	136
0	1933	300	135
0	1939	300.253973063946	136
0	1940	300.253973063946	137
0	1941	301	136
0	1947	301.576825876475	137
0	1948	301.576825876475	138
0	1949	302	137
0	1955	302.559731568369	138
0	1956	302.559731568369	139
0	1957	303	138
0	1963	303.414424015793	139
0	1964	303.414424015793	140
0	1965	304	139
0	1971	304.243041565289	140
0	1972	304.243041565289	141
0	1976	304.515327377544	142
0	1977	304.515327377544	143
0	1978	305	142
0	1981	306	141
0	1987	306.928467194827	142
0	1988	306.928467194827	143
0	1989	307	142
0	1992	308	141
0	1998	308.894853411796	142
0	1999	308.894853411796	143
0	2000	309	142
0	2003	310	141
0	2006	311	140
0	2009	312	139
0	2015	312.192349883432	140
0	2016	312.192349883432	141
0	2017	313	140
0	2020	314	139
0	2023	315	138
0	2029	315.604774327267	139
0	2030	315.604774327267	140
0	2031	316	139
0	2034	317	138
0	2037	318	137
0	2043	318.830384230506	138
0	2044	318.830384230506	139
0	2045	319	138
0	2051	319.250455397723	139
0	2052	319.250455397723	140
0	2053	320	139
0	2056	321	138
0	2059	322	137
0	2065	322.640535639194	138
0	2066	322.640535639194	139
0	2070	322.960447737624	140
0	2071	322.960447737624	141
0	2072	323	140
0	2075	324	139
0	2081	324.146038286202	140
0	2082	324.146038286202	141
0	2083	325	140
0	2086	326	139
0	2089	327	138
0	2095	327.189953745287	139
0	2096	327.189953745287	140
0	2097	328	139
0	2103	328.054647284177	140
0	2104	328.054647284177	141
0	2108	328.965309779705	142
0	2109	328.965309779705	143
0	2110	329	142
0	2113	330	141
0	2119	330.91792120956	142
0	2120	330.91792120956	143
0	2121	331	142
0	2127	331.660568126793	143
0	2128	331.660568126793	144
0	2129	332	143
0	2132	333	142
0	2135	334	141
0	2141	334.057063022849	142
0	2142	334.057063022849	143
0	2146	334.429997275336	144
0	2147	334.429997275336	145
0	2148	335	144
0	2154	335.036050096874	145
0	2155	335.036050096874	146
0	2159	335.852950487046	147
0	2160	335.852950487046	148
0	2161	336	147
0	2167	336.513758318712	148
0	2168	336.513758318712	149
0	2169	337	148
0	2172	338	147
0	2178	338.088892755179	148
0	2179	338.088892755179	149
0	2183	338.845074537752	150
0	2184	338.845074537752	151
0	2185	339	150
0	2188	340	149
0	2194	340.266282120692	150
0	2195	340.266282120692	151
0	2196	341	150
0	2202	341.343586928228	151
0	2203	341.343586928228	152
0	2204	342	151
0	2210	342.067236026349	152
0	2211	342.067236026349	153
0	2215	342.315245155641	154
0	2216	342.315245155641	155
0	2217	343	154
0	2223	343.417500536874	155
0	2224	343.417500536874	156
0	2225	344	155
0	2231	344.144482053262	156
0	2232	344.144482053262	157
0	2233	345	156
0	2239	345.633453878717	157
0	2240	345.633453878717	158
0	2241	346	157
0	2247	346.905536459626	158
0	2248	346.905536459626	159
0	2249	347	158
0	2255	347.684220183941	159
0	2256	347.684220183941	160
0	2257	348	159
0	2263	348.3422772344	160
0	2264	348.3422772344	161
0	2265	349	160
0	2271	349.483369065301	161
0	2272	349.483369065301	162
0	2276	349.736009951697	163
0	2277	349.736009951697	164
0	2278	350	163
0	2284	350.195160841506	164
0	2285	350.195160841506	165
0	2286	351	164
0	2289	352	163
0	2295	352.169800443498	164
0	2296	352.169800443498	165
0	2297	353	164
0	2303	353.369819737964	165
0	2304	353.369819737964	166
0	2305	354	165
0	2308	355	164
0	2314	355.68224310386	165
0	2315	355.68224310386	166
0	2316	356	165
0	2322	356.578402238184	166
0	2323	356.578402238184	167
0	2327	356.856838269236	168
0	2328	356.856838269236	169
0	2329	357	168
0	2335	357.979984939789	169
0	2336	357.979984939789	170
0	2337	358	169
0	2340	359	168
0	2346	359.593750745	169
0	2347	359.593750745	170
0	2351	359.819545538624	171
0	2352	359.819545538624	172
0	2353	360	171
0	2356	361	170
0	2359	362	169
0	2362	363	168
0	2368	363.319832734663	169
0	2369	363.319832734663	170
0	2370	364	169
0	2373	365	168
0	2376	366	167
0	2382	366.529553638483	168
0	2383	366.529553638483	169
0	2384	367	168
0	2387	368	167
0	2393	368.019022058888	168
0	2394	368.019022058888	169
0	2395	369	168
0	2398	370	167
0	2404	370.231291226517	168
0	2405	370.231291226517	169
0	2409	370.505595117409	170
0	2410	370.505595117409	171
0	2411	371	170
0	2414	372	169
0	2420	372.184252584353	170
0	2421	372.184252584353	171
0	2425	372.260359664521	172
0	2426	372.260359664521	173
0	2427	373	172
0	2430	374	171
0	2433	375	170
0	2436	376	169
0	2442	376.619098715071	170
0	2443	376.619098715071	171
0	2444	377	170
0	2447	378	169
0	2453	378.171666338119	170
0	2454	378.171666338119	171
0	2455	379	170
0	2461	379.677719088993	171
0	2462	379.677719088993	172
0	2463	380	171
0	2466	381	170
0	2472	381.280740471016	171
0	2473	381.280740471016	172
0	2474	382	171
0	2480	382.752703801237	172
0	2481	382.752703801237	173
0	2482	383	172
0	2485	384	171
0	2488	385	170
0	2491	386	169
0	2494	387	168
0	2500	387.065485839862	169
0	2501	387.065485839862	170
0	2502	388	169
0	2508	388.836286199129	170
0	2509	388.836286199129	171
0	2510	389	170
0	2516	389.75429934561	171
0	2517	389.75429934561	172
0	2518	390	171
0	2521	391	170
0	2527	391.335243275311	171
0	2528	391.335243275311	172
0	2529	392	171
0	2532	393	170
0	2538	393.540009181861	171
0	2539	393.540009181861	172
0	2540	394	171
0	2543	395	170
0	2549	395.254467173541	171
0	2550	395.254467173541	172
0	2551	396	171
0	2557	396.192389625622	172
0	2558	396.192389625622	173
0	2559	397	172
0	2565	397.176108702753	173
0	2566	397.176108702753	174
0	2567	398	173
0	2570	399	172
0	2576	399.268531516724	173
0	2577	399.268531516724	174
0	2578	400	173
0	2584	400.155228922898	174
0	2585	400.155228922898	175
0	2586	401	174
0	2592	401.188003475315	175
0	2593	401.188003475315	176
0	2597	401.763091896998	177
0	2598	401.763091896998	178
0	2599	402	177
0	2602	403	176
0	2605	404	175
0	2611	404.413738608569	176
0	2612	404.413738608569	177
0	2613	405	176
0	2619	405.589091446016	177
0	2620	405.589091446016	178
0	2621	406	177
0	2627	406.572824897732	178
0	2628	406.572824897732	179
0	2629	407	178
0	2632	408	177
0	2638	408.563947605727	178
0	2639	408.563947605727	179
0	2640	409	178
0	2646	409.118099546113	179
0	2647	409.118099546113	180
0	2648	410	179
0	2651	411	178
0	2654	412	177
0	2660	412.889972647571	178
0	2661	412.889972647571	179
0	2662	413	178
0	2665	414	177
0	2671	414.236815767973	178
0	2672	414.236815767973	179
0	2676	414.400547998752	180
0	2677	414.400547998752	181
0	2678	415	180
0	2681	416	179
0	2687	416.506894636717	180
0	2688	416.506894636717	181
0	2692	416.614183610067	182
0	2693	416.614183610067	183
0	2694	417	182
0	2697	418	181
0	2703	418.294096186229	182
0	2704	418.294096186229	183
0	2708	418.873824162955	184
0	2709	418.873824162955	185
0	2710	419	184
0	2713	420	183
0	2716	421	182
0	2719	422	181
0	2725	422.694041133961	182
0	2726	422.694041133961	183
0	2727	423	182
0	2730	424	181
0	2736	424.060971581343	182
0	2737	424.060971581343	183
0	2738	425	182
0	2741	426	181
0	2744	427	180
0	2747	428	179
0	2753	428.767084254827	180
0	2754	428.767084254827	181
0	2755	429	180
0	2758	430	179
0	2761	431	178
0	2764	432	177
0	2767	433	176
0	2770	434	175
0	2776	434.659312672498	176
0	2777	434.659312672498	177
0	2778	435	176
0	2781	436	175
0	2787	436.312978824733	176
0	2788	436.312978824733	177
0	2792	436.369021106258	178
0	2793	436.369021106258	179
0	2794	437	178
0	2797	438	177
0	2803	438.188050190083	178
0	2804	438.188050190083	179
0	2805	439	178
0	2808	440	177
0	2814	440.839181365401	178
0	2815	440.839181365401	179
0	2816	441	178
0	2822	441.329955715716	179
0	2823	441.329955715716	180
0	2824	442	179
0	2830	442.793309974571	180
0	2831	442.793309974571	181
0	2832	443	180
0	2835	444	179
0	2838	445	178
0	2844	445.798929777987	179
0	2845	445.798929777987	180
0	2846	446	179
0	2852	446.938774539572	180
0	2853	446.938774539572	181
0	2854	447	180
0	2860	447.198845383332	181
0	2861	447.198845383332	182
0	2865	447.213376958534	183
0	2866	447.213376958534	184
0	2867	448	183
0	2873	448.459757953135	184
0	2874	448.459757953135	185
0	2875	449	184
0	2881	449.877149224767	185
0	2882	449.877149224767	186
0	2883	450	185
0	2889	450.065320716282	186
0	2890	450.065320716282	187
0	2891	451	186
0	2897	451.678518355915	187
0	2898	451.678518355915	188
0	2899	452	187
0	2902	453	186
0	2905	454	185
0	2911	454.73075310524	186
0	2912	454.73075310524	187
0	2913	455	186
0	2916	456	185
0	2922	456.158413981459	186
0	2923	456.158413981459	187
0	2924	457	186
0	2930	457.553298971122	187
0	2931	457.553298971122	188
0	2932	458	187
0	2938	458.234063149014	188
0	2939	458.234063149014	189
0	2943	458.558457346653	190
0	2944	458.558457346653	191
0	2948	458.747505619742	192
0	2949	458.747505619742	193
0	2950	459	192
0	2953	460	191
0	2959	460.047363334975	192
0	2960	460.047363334975	193
0	2961	461	192
0	2967	461.765500841896	193
0	2968	461.765500841896	194
0	2969	462	193
0	2972	463	192
0	2975	464	191
0	2981	464.542388651334	192
0	2982	464.542388651334	193
0	2986	464.942650920034	194
0	2987	464.942650920034	195
0	2988	465	194
0	2994	465.239634962366	195
0	2995	465.239634962366	196
0	2996	466	195
0	2999	467	194
0	3005	467.334566913444	195
0	3006	467.334566913444	196
0	3007	468	195
0	3013	468.132363343086	196
0	3014	468.132363343086	197
0	3018	468.139936986598	198
0	3019	468.139936986598	199
0	3023	468.75641192214	200
0	3024	468.75641192214	201
0	3025	469	200
0	3031	469.680694828003	201
0	3032	469.680694828003	202
0	3036	469.701319993715	203
0	3037	469.701319993715	204
0	3038	470	203
0	3041	471	202
0	3044	472	201
0	3047	473	200
0	3053	473.324620168889	201
0	3054	473.324620168889	202
0	3058	473.449783098685	203
0	3059	473.449783098685	204
0	3063	473.694595045817	205
0	3064	473.694595045817	206
0	3065	474	205
0	3068	475	204
0	3074	475.887733581336	205
0	3075	475.887733581336	206
0	3076	476	205
0	3082	476.613725810018	206
0	3083	476.613725810018	207
0	3084	477	206
0	3087	478	205
0	3093	478.357106371259	206
0	3094	478.357106371259	207
0	3095	479	206
0	3101	479.867656701481	207
0	3102	479.867656701481	208
0	3103	480	207
0	3106	481	206
0	3109	482	205
0	3112	483	204
0	3118	483.48103207845	205
0	3119	483.48103207845	206
0	3120	484	205
0	3126	484.073094206738	206
0	3127	484.073094206738	207
0	3128	485	206
0	3134	485.013606996885	207
0	3135	485.013606996885	208
0	3139	485.847306335862	209
0	3140	485.847306335862	210
0	3141	486	209
0	3144	487	208
0	3147	488	207
0	3153	488.657356561441	208
0	3154	488.657356561441	209
0	3155	489	208
0	3161	489.807289012831	209
0	3162	489.807289012831	210
0	3163	490	209
0	3169	490.381682675721	210
0	3170	490.381682675721	211
0	3171	491	210
0	3174	492	209
0	3180	492.367440216557	210
0	3181	492.367440216557	211
0	3182	493	210
0	3188	493.042222796602	211
0	3189	493.042222796602	212
0	3190	494	211
0	3196	494.996289950569	212
0	3197	494.996289950569	213
0	3198	495	212
0	3204	495.100196473975	213
0	3205	495.100196473975	214
0	3209	495.173022145725	215
0	3210	495.173022145725	216
0	3214	495.466244507572	217
0	3215	495.466244507572	218
0	3219	495.592751716365	219
0	3220	495.592751716365	220
0	3221	496	219
0	3224	497	218
0	3230	497.350496200099	219
0	3231	497.350496200099	220
0	3232	498	219
0	3238	498.314168709114	220
0	3239	498.314168709114	221
0	3240	499	220
0	3246	499.884372349377	221
0	3247	499.884372349377	222
0	3248	500	221
0	3254	500.71572260617	222
0	3255	500.71572260617	223
0	3256	501	222
0	3262	501.805362430604	223
0	3263	501.805362430604	224
0	3264	502	223
0	3267	503	222
0	3273	503.759492602857	223
0	3274	503.759492602857	224
0	3275	504	223
0	3281	504.181732539263	224
0	3282	504.181732539263	225
0	3286	504.957243921598	226
0	3287	504.957243921598	227
0	3288	505	226
0	3291	506	225
0	3297	506.957152123674	226
0	3298	506.957152123674	227
0	3299	507	226
0	3305	507.062661274047	227
0	3306	507.062661274047	228
0	3310	507.575798194691	229
0	3311	507.575798194691	230
0	3312	508	229
0	3318	508.865090634667	230
0	3319	508.865090634667	231
0	3320	509	230
0	3323	510	229
0	3329	510.489302802777	230
0	3330	510.489302802777	231
0	3334	510.954273798186	232
0	3335	510.954273798186	233
0	3336	511	232
0	3339	512	231
0	3342	513	230
0	3348	513.647051810184	231
0	3349	513.647051810184	232
0	3350	514	231
0	3353	515	230
0	3359	515.389024812719	231
0	3360	515.389024812719	232
0	3361	516	231
0	3364	517	230
0	3370	517.709254258115	231
0	3371	517.709254258115	232
0	3372	518	231
0	3375	519	230
0	3381	519.975384385597	231
0	3382	519.975384385597	232
0	3383	520	231
0	3389	520.50738416421	232
0	3390	520.50738416421	233
0	3391	521	232
0	3397	521.242974780425	233
0	3398	521.242974780425	234
0	3399	522	233
0	3402	523	232
0	3408	523.844181373426	233
0	3409	523.844181373426	234
0	3413	523.855158404271	235
0	3414	523.855158404271	236
0	3415	524	235
0	3418	525	234
0	3424	525.768674203	235
0	3425	525.768674203	236
0	3429	525.845347984659	237
0	3430	525.845347984659	238
0	3431	526	237
0	3434	527	236
0	3440	527.505295229527	237
0	3441	527.505295229527	238
0	3442	528	237
0	3445	529	236
0	3451	529.079727156442	237
0	3452	529.079727156442	238
0	3453	530	237
0	3459	530.104167245161	238
0	3460	530.104167245161	239
0	3464	530.579581279019	240
0	3465	530.579581279019	241
0	3466	531	240
0	3469	532	239
0	3475	532.840604743892	240
0	3476	532.840604743892	241
0	3477	533	240
0	3480	534	239
0	3483	535	238
0	3489	535.296262289089	239
0	3490	535.296262289089	240
0	3491	536	239
0	3497	536.710075955379	240
0	3498	536.710075955379	241
0	3499	537	240
0	3502	538	239
0	3508	538.612544168496	240
0	3509	538.612544168496	241
0	3510	539	240
0	3516	539.550253284661	241
0	3517	539.550253284661	242
0	3518	540	241
0	3524	540.388361754463	242
0	3525	540.388361754463	243
0	3526	541	242
0	3532	541.457004291578	243
0	3533	541.457004291578	244
0	3534	542	243
0	3537	543	242
0	3543	543.982352797744	243
0	3544	543.982352797744	244
0	3545	544	243
0	3551	544.545198347556	244
0	3552	544.545198347556	245
0	3553	545	244
0	3559	545.425385871568	245
0	3560	545.425385871568	246
0	3561	546	245
0	3567	546.384376729489	246