version 3
run k_MM1_rand-3-20221127-16:03:20-5740
attr configname k_MM1_rand
attr datetime 20221127-16:03:20
attr datetimef 20221127-160320
attr experiment k_MM1_rand
attr inifile omnetpp.ini
attr iterationvars "$time=1.0, $num=1, $0=33434, $1=56673, $2=23567"
attr iterationvarsd time=1.0/num=1/33434/56673/23567
attr iterationvarsf time=1.0,num=1,33434,56673,23567-
attr measurement "$time=1.0, $num=1, $0=33434, $1=56673, $2=23567"
attr network randkMM1
attr processid 5740
attr repetition 3
attr replication #3
attr resultdir results
attr runnumber 3
attr seedset 3
itervar num 1
itervar time 1.0
config description "MM1 module k-times random"
config network randkMM1
config **.source.interArrivalTime "truncnormal(0.5s, 1.5s)"
config **.serviceTime 1.0s
config **.c 1
config **.capacity 10000
config record-eventlog false
config **.scalar-recording true
config **.vector-recording true
config repeat 4
config seed-1-mt 33434
config seed-2-mt 56673
config seed-3-mt 23567
config output-vector-file k_MM1_rand-1-1.0-results/3.vec
config output-scalar-file k_MM1_rand-1-1.0-results/3.sca

vector 0 randkMM1.mm1[0] queueLength:vector ETV
attr interpolationmode none
attr recordingmode vector
attr title "queue length"
vector 1 randkMM1.mm1[0] util:vector ETV
attr interpolationmode none
attr recordingmode vector
attr title resources
0	5	10	1
0	6	11	0
0	16	12.213393712999	1
0	17	13.213393712999	0
0	23	13.974146941588	1
0	24	13.974146941588	2
0	25	14.213393712999	1
0	28	15.213393712999	0
0	34	15.373671681472	1
0	35	15.373671681472	2
0	36	16.213393712999	1
0	39	17.213393712999	0
0	49	19.044946763069	1
0	50	20.044946763069	0
0	56	20.296872187593	1
0	57	20.296872187593	2
0	61	20.810435702384	3
0	62	20.810435702384	4
0	63	21.044946763069	3
0	69	21.716216077067	4
0	70	21.716216077067	5
0	71	22.044946763069	4
0	77	22.441974137324	5
0	78	22.441974137324	6
0	79	23.044946763069	5
0	85	23.407877033998	6
0	86	23.407877033998	7
0	87	24.044946763069	6
0	90	25.044946763069	5
0	96	25.623025398654	6
0	97	25.623025398654	7
0	98	26.044946763069	6
0	104	26.155836697931	7
0	105	26.155836697931	8
0	106	27.044946763069	7
0	109	28.044946763069	6
0	115	28.548630477631	7
0	116	28.548630477631	8
0	120	28.623876659038	9
0	121	28.623876659038	10
0	125	28.871813488317	11
0	126	28.871813488317	12
0	127	29.044946763069	11
0	133	29.462396176803	12
0	134	29.462396176803	13
0	135	30.044946763069	12
0	141	31.038130271349	13
0	142	31.038130271349	14
0	143	31.044946763069	13
0	149	31.477005090237	14
0	150	31.477005090237	15
0	151	32.044946763069	14
0	157	32.808742549451	15
0	158	32.808742549451	16
0	162	33.015756228516	17
0	163	33.015756228516	18
0	164	33.044946763069	17
0	167	34.044946763069	16
0	170	35.044946763069	15
0	173	36.044946763069	14
0	179	37.007197509098	15
0	180	37.007197509098	16
0	181	37.044946763069	15
0	184	38.044946763069	14
0	187	39.044946763069	13
0	190	40.044946763069	12
0	196	40.064249335419	13
0	197	40.064249335419	14
0	198	41.044946763069	13
0	204	41.736309913219	14
0	205	41.736309913219	15
0	206	42.044946763069	14
0	212	42.741245654084	15
0	213	42.741245654084	16
0	217	42.806371267229	17
0	218	42.806371267229	18
0	219	43.044946763069	17
0	222	44.044946763069	16
0	228	44.712430593133	17
0	229	44.712430593133	18
0	233	44.782297284397	19
0	234	44.782297284397	20
0	235	45.044946763069	19
0	241	45.26276019917	20
0	242	45.26276019917	21
0	243	46.044946763069	20
0	249	46.122742775306	21
0	250	46.122742775306	22
0	251	47.044946763069	21
0	257	47.99666234807	22
0	258	47.99666234807	23
0	259	48.044946763069	22
0	265	48.956310433701	23
0	266	48.956310433701	24
0	267	49.044946763069	23
0	270	50.044946763069	22
0	276	50.927077076066	23
0	277	50.927077076066	24
0	278	51.044946763069	23
0	284	51.494636711693	24
0	285	51.494636711693	25
0	286	52.044946763069	24
0	292	52.920899843193	25
0	293	52.920899843193	26
0	294	53.044946763069	25
0	297	54.044946763069	24
0	303	54.396404303267	25
0	304	54.396404303267	26
0	308	54.670375766202	27
0	309	54.670375766202	28
0	310	55.044946763069	27
0	316	55.994716981631	28
0	317	55.994716981631	29
0	318	56.044946763069	28
0	321	57.044946763069	27
0	327	57.301043894546	28
0	328	57.301043894546	29
0	329	58.044946763069	28
0	335	58.701528337352	29
0	336	58.701528337352	30
0	337	59.044946763069	29
0	340	60.044946763069	28
0	346	60.218694277541	29
0	347	60.218694277541	30
0	351	60.546289243973	31
0	352	60.546289243973	32
0	353	61.044946763069	31
0	359	61.438478640659	32
0	360	61.438478640659	33
0	361	62.044946763069	32
0	367	63.014908422851	33
0	368	63.014908422851	34
0	369	63.044946763069	33
0	372	64.044946763069	32
0	375	65.044946763069	31
0	381	65.660826123352	32
0	382	65.660826123352	33
0	383	66.044946763069	32
0	386	67.044946763069	31
0	392	67.642947465103	32
0	393	67.642947465103	33
0	394	68.044946763069	32
0	400	68.682869278018	33
0	401	68.682869278018	34
0	402	69.044946763069	33
0	408	69.681663057368	34
0	409	69.681663057368	35
0	410	70.044946763069	34
0	416	70.082199868436	35
0	417	70.082199868436	36
0	421	71.029873344131	37
0	422	71.029873344131	38
0	423	71.044946763069	37
0	426	72.044946763069	36
0	432	72.389204001716	37
0	433	72.389204001716	38
0	437	72.646289570827	39
0	438	72.646289570827	40
0	439	73.044946763069	39
0	445	73.156902629252	40
0	446	73.156902629252	41
0	447	74.044946763069	40
0	450	75.044946763069	39
0	456	75.075636510815	40
0	457	75.075636510815	41
0	458	76.044946763069	40
0	464	76.405320063515	41
0	465	76.405320063515	42
0	466	77.044946763069	41
0	469	78.044946763069	40
0	475	78.361221537064	41
0	476	78.361221537064	42
0	477	79.044946763069	41
0	480	80.044946763069	40
0	486	80.63300026018	41
0	487	80.63300026018	42
0	488	81.044946763069	41
0	494	81.669466346798	42
0	495	81.669466346798	43
0	496	82.044946763069	42
0	502	82.522423614543	43
0	503	82.522423614543	44
0	504	83.044946763069	43
0	507	84.044946763069	42
0	513	84.776793602954	43
0	514	84.776793602954	44
0	515	85.044946763069	43
0	521	86.016447216464	44
0	522	86.016447216464	45
0	523	86.044946763069	44
0	529	86.073505541393	45
0	530	86.073505541393	46
0	531	87.044946763069	45
0	537	87.628973327588	46
0	538	87.628973327588	47
0	539	88.044946763069	46
0	545	88.595978345029	47
0	546	88.595978345029	48
0	547	89.044946763069	47
0	553	89.196186753965	48
0	554	89.196186753965	49
0	555	90.044946763069	48
0	561	90.400100366814	49
0	562	90.400100366814	50
0	563	91.044946763069	49
0	566	92.044946763069	48
0	569	93.044946763069	47
0	575	93.440277857277	48
0	576	93.440277857277	49
0	577	94.044946763069	48
0	583	94.346882210322	49
0	584	94.346882210322	50
0	585	95.044946763069	49
0	591	95.954158604044	50
0	592	95.954158604044	51
0	593	96.044946763069	50
0	596	97.044946763069	49
0	602	97.268672740698	50
0	603	97.268672740698	51
0	607	97.457372440134	52
0	608	97.457372440134	53
0	609	98.044946763069	52
0	612	99.044946763069	51
0	618	99.267317053429	52
0	619	99.267317053429	53
0	623	99.314478635111	54
0	624	99.314478635111	55
0	625	100.044946763069	54
0	628	101.044946763069	53
0	631	102.044946763069	52
0	637	102.114905413815	53
0	638	102.114905413815	54
0	639	103.044946763069	53
0	642	104.044946763069	52
0	648	104.695780974677	53
0	649	104.695780974677	54
0	650	105.044946763069	53
0	656	106.030151027617	54
0	657	106.030151027617	55
0	658	106.044946763069	54
0	664	106.355604575772	55
0	665	106.355604575772	56
0	669	106.834057946585	57
0	670	106.834057946585	58
0	671	107.044946763069	57
0	677	107.162747376018	58
0	678	107.162747376018	59
0	682	107.636160715905	60
0	683	107.636160715905	61
0	684	108.044946763069	60
0	687	109.044946763069	59
0	693	109.878895646616	60
0	694	109.878895646616	61
0	695	110.044946763069	60
0	698	111.044946763069	59
0	704	111.253085043578	60
0	705	111.253085043578	61
0	706	112.044946763069	60
0	712	112.482161725643	61
0	713	112.482161725643	62
0	714	113.044946763069	61
0	717	114.044946763069	60
0	720	115.044946763069	59
0	726	115.161376865578	60
0	727	115.161376865578	61
0	731	116.016297176326	62
0	732	116.016297176326	63
0	733	116.044946763069	62
0	739	116.914163303636	63
0	740	116.914163303636	64
0	741	117.044946763069	63
0	744	118.044946763069	62
0	750	118.164064419841	63
0	751	118.164064419841	64
0	752	119.044946763069	63
0	758	119.506612730983	64
0	759	119.506612730983	65
0	760	120.044946763069	64
0	763	121.044946763069	63
0	766	122.044946763069	62
0	772	122.865783246948	63
0	773	122.865783246948	64
0	774	123.044946763069	63
0	777	124.044946763069	62
0	783	124.280200521668	63
0	784	124.280200521668	64
0	785	125.044946763069	63
0	791	125.418737137126	64
0	792	125.418737137126	65
0	796	125.738620635637	66
0	797	125.738620635637	67
0	798	126.044946763069	66
0	804	126.208637532176	67
0	805	126.208637532176	68
0	806	127.044946763069	67
0	812	127.217118302712	68
0	813	127.217118302712	69
0	814	128.044946763069	68
0	817	129.044946763069	67
0	823	129.137829076848	68
0	824	129.137829076848	69
0	825	130.044946763069	68
0	831	130.404592523083	69
0	832	130.404592523083	70
0	833	131.044946763069	69
0	836	132.044946763069	68
0	842	133.022128052952	69
0	843	133.022128052952	70
0	844	133.044946763069	69
0	847	134.044946763069	68
0	853	134.692980143878	69
0	854	134.692980143878	70
0	855	135.044946763069	69
0	858	136.044946763069	68
0	864	136.861100271343	69
0	865	136.861100271343	70
0	866	137.044946763069	69
0	869	138.044946763069	68
0	875	138.797203488091	69
0	876	138.797203488091	70
0	877	139.044946763069	69
0	883	139.843441075051	70
0	884	139.843441075051	71
0	885	140.044946763069	70
0	891	140.814353133323	71
0	892	140.814353133323	72
0	893	141.044946763069	71
0	896	142.044946763069	70
0	899	143.044946763069	69
0	902	144.044946763069	68
0	908	144.372493956197	69
0	909	144.372493956197	70
0	913	144.482193991141	71
0	914	144.482193991141	72
0	915	145.044946763069	71
0	921	145.071767558357	72
0	922	145.071767558357	73
0	923	146.044946763069	72
0	926	147.044946763069	71
0	929	148.044946763069	70
0	935	148.575258301237	71
0	936	148.575258301237	72
0	937	149.044946763069	71
0	943	149.669324226802	72
0	944	149.669324226802	73
0	945	150.044946763069	72
0	948	151.044946763069	71
0	954	151.045454591864	72
0	955	151.045454591864	73
0	959	151.686549473774	74
0	960	151.686549473774	75
0	961	152.044946763069	74
0	967	152.322406959751	75
0	968	152.322406959751	76
0	969	153.044946763069	75
0	975	153.598036367613	76
0	976	153.598036367613	77
0	977	154.044946763069	76
0	983	154.953973249338	77
0	984	154.953973249338	78
0	985	155.044946763069	77
0	988	156.044946763069	76
0	994	156.9775087084	77
0	995	156.9775087084	78
0	996	157.044946763069	77
0	999	158.044946763069	76
0	1005	158.827341751273	77
0	1006	158.827341751273	78
0	1007	159.044946763069	77
0	1010	160.044946763069	76
0	1013	161.044946763069	75
0	1019	161.171015995926	76
0	1020	161.171015995926	77
0	1021	162.044946763069	76
0	1027	162.124368804027	77
0	1028	162.124368804027	78
0	1032	162.712022593398	79
0	1033	162.712022593398	80
0	1034	163.044946763069	79
0	1040	163.473367791939	80
0	1041	163.473367791939	81
0	1045	163.753465082903	82
0	1046	163.753465082903	83
0	1047	164.044946763069	82
0	1053	164.445186499583	83
0	1054	164.445186499583	84
0	1055	165.044946763069	83
0	1058	166.044946763069	82
0	1064	166.335637824761	83
0	1065	166.335637824761	84
0	1069	166.489936088646	85
0	1070	166.489936088646	86
0	1071	167.044946763069	85
0	1074	168.044946763069	84
0	1077	169.044946763069	83
0	1083	169.314372770086	84
0	1084	169.314372770086	85
0	1088	169.695604645832	86
0	1089	169.695604645832	87
0	1090	170.044946763069	86
0	1096	170.333861933563	87
0	1097	170.333861933563	88
0	1098	171.044946763069	87
0	1104	171.252153237769	88
0	1105	171.252153237769	89
0	1106	172.044946763069	88
0	1112	172.70712624403	89
0	1113	172.70712624403	90
0	1114	173.044946763069	89
0	1117	174.044946763069	88
0	1120	175.044946763069	87
0	1126	175.174786891457	88
0	1127	175.174786891457	89
0	1131	175.885448503363	90
0	1132	175.885448503363	91
0	1133	176.044946763069	90
0	1139	176.998340899066	91
0	1140	176.998340899066	92
0	1141	177.044946763069	91
0	1144	178.044946763069	90
0	1150	178.544703950357	91
0	1151	178.544703950357	92
0	1152	179.044946763069	91
0	1158	179.170326617285	92
0	1159	179.170326617285	93
0	1160	180.044946763069	92
0	1163	181.044946763069	91
0	1169	181.379002639981	92
0	1170	181.379002639981	93
0	1174	181.870070469974	94
0	1175	181.870070469974	95
0	1176	182.044946763069	94
0	1182	182.717729001905	95
0	1183	182.717729001905	96
0	1187	182.938335270218	97
0	1188	182.938335270218	98
0	1189	183.044946763069	97
0	1192	184.044946763069	96
0	1198	184.232317533362	97
0	1199	184.232317533362	98
0	1203	184.387431375535	99
0	1204	184.387431375535	100
0	1205	185.044946763069	99
0	1208	186.044946763069	98
0	1211	187.044946763069	97
0	1217	187.548442518227	98
0	1218	187.548442518227	99
0	1222	187.761114464006	100
0	1223	187.761114464006	101
0	1224	188.044946763069	100
0	1230	188.455816549853	101
0	1231	188.455816549853	102
0	1235	188.893261417821	103
0	1236	188.893261417821	104
0	1237	189.044946763069	103
0	1243	189.731713568029	104
0	1244	189.731713568029	105
0	1245	190.044946763069	104
0	1251	190.448229847802	105
0	1252	190.448229847802	106
0	1253	191.044946763069	105
0	1259	191.132268246532	106
0	1260	191.132268246532	107
0	1261	192.044946763069	106
0	1264	193.044946763069	105
0	1267	194.044946763069	104
0	1270	195.044946763069	103
0	1276	195.149064689227	104
0	1277	195.149064689227	105
0	1281	196.013906345382	106
0	1282	196.013906345382	107
0	1283	196.044946763069	106
0	1289	196.793844294969	107
0	1290	196.793844294969	108
0	1291	197.044946763069	107
0	1294	198.044946763069	106
0	1297	199.044946763069	105
0	1303	199.210845591082	106
0	1304	199.210845591082	107
0	1305	200.044946763069	106
0	1308	201.044946763069	105
0	1314	201.599599918428	106
0	1315	201.599599918428	107
0	1319	201.896931467491	108
0	1320	201.896931467491	109
0	1321	202.044946763069	108
0	1327	202.508852337417	109
0	1328	202.508852337417	110
0	1329	203.044946763069	109
0	1335	203.748156242218	110
0	1336	203.748156242218	111
0	1337	204.044946763069	110
0	1343	204.731366933964	111
0	1344	204.731366933964	112
0	1345	205.044946763069	111
0	1351	205.895673387494	112
0	1352	205.895673387494	113
0	1353	206.044946763069	112
0	1356	207.044946763069	111
0	1359	208.044946763069	110
0	1362	209.044946763069	109
0	1368	209.236070126524	110
0	1369	209.236070126524	111
0	1370	210.044946763069	110
0	1373	211.044946763069	109
0	1379	211.104458385634	110
0	1380	211.104458385634	111
0	1381	212.044946763069	110
0	1384	213.044946763069	109
0	1390	213.282906833509	110
0	1391	213.282906833509	111
0	1392	214.044946763069	110
0	1398	214.298298914419	111
0	1399	214.298298914419	112
0	1400	215.044946763069	111
0	1406	215.071364961961	112
0	1407	215.071364961961	113
0	1408	216.044946763069	112
0	1414	216.435975021454	113
0	1415	216.435975021454	114
0	1416	217.044946763069	113
0	1419	218.044946763069	112
0	1425	218.708954464303	113
0	1426	218.708954464303	114
0	1430	218.857166787746	115
0	1431	218.857166787746	116
0	1432	219.044946763069	115
0	1435	220.044946763069	114
0	1441	220.433923266644	115
0	1442	220.433923266644	116
0	1443	221.044946763069	115
0	1449	221.199374140245	116
0	1450	221.199374140245	117
0	1451	222.044946763069	116
0	1454	223.044946763069	115
0	1457	224.044946763069	114
0	1463	224.69421250418	115
0	1464	224.69421250418	116
0	1465	225.044946763069	115
0	1468	226.044946763069	114
0	1471	227.044946763069	113
0	1474	228.044946763069	112
0	1480	228.442241660569	113
0	1481	228.442241660569	114
0	1482	229.044946763069	113
0	1488	229.370278991837	114
0	1489	229.370278991837	115
0	1490	230.044946763069	114
0	1496	230.377800107228	115
0	1497	230.377800107228	116
0	1498	231.044946763069	115
0	1501	232.044946763069	114
0	1504	233.044946763069	113
0	1507	234.044946763069	112
0	1513	234.091329267383	113
0	1514	234.091329267383	114
0	1515	235.044946763069	113
0	1521	235.124273817145	114
0	1522	235.124273817145	115
0	1526	235.389311369842	116
0	1527	235.389311369842	117
0	1528	236.044946763069	116
0	1531	237.044946763069	115
0	1537	237.882463788557	116
0	1538	237.882463788557	117
0	1539	238.044946763069	116
0	1545	238.05266149038	117
0	1546	238.05266149038	118
0	1547	239.044946763069	117
0	1553	239.14665482734	118
0	1554	239.14665482734	119
0	1555	240.044946763069	118
0	1558	241.044946763069	117
0	1564	241.096963264345	118
0	1565	241.096963264345	119
0	1566	242.044946763069	118
0	1572	242.936287842972	119
0	1573	242.936287842972	120
0	1574	243.044946763069	119
0	1580	243.546659356917	120
0	1581	243.546659356917	121
0	1582	244.044946763069	120
0	1588	244.933659714475	121
0	1589	244.933659714475	122
0	1590	245.044946763069	121
0	1596	245.688326663364	122
0	1597	245.688326663364	123
0	1598	246.044946763069	122
0	1601	247.044946763069	121
0	1604	248.044946763069	120
0	1610	248.292847824438	121
0	1611	248.292847824438	122
0	1615	248.65467848316	123
0	1616	248.65467848316	124
0	1617	249.044946763069	123
0	1620	250.044946763069	122
0	1623	251.044946763069	121
0	1626	252.044946763069	120
0	1632	252.482825220443	121
0	1633	252.482825220443	122
0	1634	253.044946763069	121
0	1637	254.044946763069	120
0	1640	255.044946763069	119
0	1646	255.928842809194	120
0	1647	255.928842809194	121
0	1648	256.044946763069	120
0	1651	257.044946763069	119
0	1654	258.044946763069	118
0	1660	258.098617721972	119
0	1661	258.098617721972	120
0	1662	259.044946763069	119
0	1668	259.08265914733	120
0	1669	259.08265914733	121
0	1670	260.044946763069	120
0	1676	260.321004504884	121
0	1677	260.321004504884	122
0	1678	261.044946763069	121
0	1684	261.248142844205	122
0	1685	261.248142844205	123
0	1689	261.35655657503	124
0	1690	261.35655657503	125
0	1691	262.044946763069	124
0	1697	262.382678828217	125
0	1698	262.382678828217	126
0	1699	263.044946763069	125
0	1702	264.044946763069	124
0	1708	264.561687645138	125
0	1709	264.561687645138	126
0	1713	264.744425273131	127
0	1714	264.744425273131	128
0	1715	265.044946763069	127
0	1721	265.869426108407	128
0	1722	265.869426108407	129
0	1723	266.044946763069	128
0	1726	267.044946763069	127
0	1732	267.079262894214	128
0	1733	267.079262894214	129
0	1734	268.044946763069	128
0	1737	269.044946763069	127
0	1743	269.139766204925	128
0	1744	269.139766204925	129
0	1745	270.044946763069	128
0	1751	270.29634167579	129
0	1752	270.29634167579	130
0	1756	270.655607721836	131
0	1757	270.655607721836	132
0	1758	271.044946763069	131
0	1764	271.087742974249	132
0	1765	271.087742974249	133
0	1766	272.044946763069	132
0	1772	272.123587193598	133
0	1773	272.123587193598	134
0	1777	272.537355811233	135
0	1778	272.537355811233	136
0	1779	273.044946763069	135
0	1782	274.044946763069	134
0	1788	274.704017708534	135
0	1789	274.704017708534	136
0	1790	275.044946763069	135
0	1793	276.044946763069	134
0	1796	277.044946763069	133
0	1802	277.5411951988	134
0	1803	277.5411951988	135
0	1804	278.044946763069	134
0	1807	279.044946763069	133
0	1813	279.560458840164	134
0	1814	279.560458840164	135
0	1815	280.044946763069	134
0	1821	280.056472811758	135
0	1822	280.056472811758	136
0	1826	280.720708143128	137
0	1827	280.720708143128	138
0	1828	281.044946763069	137
0	1831	282.044946763069	136
0	1837	282.060566791794	137
0	1838	282.060566791794	138
0	1839	283.044946763069	137
0	1842	284.044946763069	136
0	1848	284.175168673951	137
0	1849	284.175168673951	138
0	1853	284.199883846265	139
0	1854	284.199883846265	140
0	1855	285.044946763069	139
0	1861	285.078980320222	140
0	1862	285.078980320222	141
0	1866	285.187714134991	142
0	1867	285.187714134991	143
0	1871	285.279529975712	144
0	1872	285.279529975712	145
0	1873	286.044946763069	144
0	1876	287.044946763069	143
0	1882	287.304586023739	144
0	1883	287.304586023739	145
0	1884	288.044946763069	144
0	1887	289.044946763069	143
0	1890	290.044946763069	142
0	1896	290.914131053595	143
0	1897	290.914131053595	144
0	1898	291.044946763069	143
0	1901	292.044946763069	142
0	1907	292.049327209974	143
0	1908	292.049327209974	144
0	1912	292.818573395742	145
0	1913	292.818573395742	146
0	1917	292.959500485305	147
0	1918	292.959500485305	148
0	1919	293.044946763069	147
0	1922	294.044946763069	146
0	1928	294.300471642239	147
0	1929	294.300471642239	148
0	1930	295.044946763069	147
0	1933	296.044946763069	146
0	1939	296.678861448095	147
0	1940	296.678861448095	148
0	1941	297.044946763069	147
0	1944	298.044946763069	146
0	1950	298.940580403327	147
0	1951	298.940580403327	148
0	1952	299.044946763069	147
0	1955	300.044946763069	146
0	1958	301.044946763069	145
0	1964	301.051856350714	146
0	1965	301.051856350714	147
0	1969	301.586472895314	148
0	1970	301.586472895314	149
0	1971	302.044946763069	148
0	1974	303.044946763069	147
0	1977	304.044946763069	146
0	1980	305.044946763069	145
0	1983	306.044946763069	144
0	1986	307.044946763069	143
0	1992	307.637134250686	144
0	1993	307.637134250686	145
0	1994	308.044946763069	144
0	1997	309.044946763069	143
0	2000	310.044946763069	142
0	2006	310.264812067656	143
0	2007	310.264812067656	144
0	2008	311.044946763069	143
0	2011	312.044946763069	142
0	2017	312.46251051257	143
0	2018	312.46251051257	144
0	2019	313.044946763069	143
0	2025	313.1442879091	144
0	2026	313.1442879091	145
0	2027	314.044946763069	144
0	2030	315.044946763069	143
0	2036	315.647252665597	144
0	2037	315.647252665597	145
0	2038	316.044946763069	144
0	2041	317.044946763069	143
0	2047	317.323339796011	144
0	2048	317.323339796011	145
0	2052	317.967616957758	146
0	2053	317.967616957758	147
0	2054	318.044946763069	146
0	2060	318.616481934452	147
0	2061	318.616481934452	148
0	2062	319.044946763069	147
0	2065	320.044946763069	146
0	2071	320.396731126262	147
0	2072	320.396731126262	148
0	2073	321.044946763069	147
0	2079	321.628313340914	148
0	2080	321.628313340914	149
0	2084	322.024603411669	150
0	2085	322.024603411669	151
0	2086	322.044946763069	150
0	2089	323.044946763069	149
0	2092	324.044946763069	148
0	2098	324.669233022443	149
0	2099	324.669233022443	150
0	2100	325.044946763069	149
0	2103	326.044946763069	148
0	2109	326.084841317499	149
0	2110	326.084841317499	150
0	2114	326.506510164747	151
0	2115	326.506510164747	152
0	2116	327.044946763069	151
0	2119	328.044946763069	150
0	2125	328.176615481119	151
0	2126	328.176615481119	152
0	2130	328.916390401088	153
0	2131	328.916390401088	154
0	2132	329.044946763069	153
0	2135	330.044946763069	152
0	2138	331.044946763069	151
0	2144	331.912935223035	152
0	2145	331.912935223035	153
0	2146	332.044946763069	152
0	2149	333.044946763069	151
0	2155	333.643506545905	152
0	2156	333.643506545905	153
0	2157	334.044946763069	152
0	2160	335.044946763069	151
0	2166	335.631570799113	152
0	2167	335.631570799113	153
0	2168	336.044946763069	152
0	2171	337.044946763069	151
0	2177	337.979880300832	152
0	2178	337.979880300832	153
0	2179	338.044946763069	152
0	2182	339.044946763069	151
0	2185	340.044946763069	150
0	2191	340.206825819694	151
0	2192	340.206825819694	152
0	2196	340.301288389842	153
0	2197	340.301288389842	154
0	2201	340.356191108013	155
0	2202	340.356191108013	156
0	2203	341.044946763069	155
0	2206	342.044946763069	154
0	2212	342.43550352671	155
0	2213	342.43550352671	156
0	2217	343.03873698268	157
0	2218	343.03873698268	158
0	2219	343.044946763069	157
0	2222	344.044946763069	156
0	2228	344.528423587413	157
0	2229	344.528423587413	158
0	2230	345.044946763069	157
0	2233	346.044946763069	156
0	2239	346.932153412273	157
0	2240	346.932153412273	158
0	2241	347.044946763069	157
0	2247	347.343232468329	158
0	2248	347.343232468329	159
0	2249	348.044946763069	158
0	2252	349.044946763069	157
0	2258	349.215985000136	158
0	2259	349.215985000136	159
0	2260	350.044946763069	158
0	2263	351.044946763069	157
0	2269	351.312308939959	158
0	2270	351.312308939959	159
0	2274	351.486583577936	160
0	2275	351.486583577936	161
0	2276	352.044946763069	160
0	2282	352.149087738191	161
0	2283	352.149087738191	162
0	2284	353.044946763069	161
0	2287	354.044946763069	160
0	2290	355.044946763069	159
0	2296	355.702299647573	160
0	2297	355.702299647573	161
0	2298	356.044946763069	160
0	2301	357.044946763069	159
0	2307	357.059228320351	160
0	2308	357.059228320351	161
0	2309	358.044946763069	160
0	2312	359.044946763069	159
0	2318	359.329464371548	160
0	2319	359.329464371548	161
0	2320	360.044946763069	160
0	2326	360.843063265162	161
0	2327	360.843063265162	162
0	2328	361.044946763069	161
0	2334	361.14761621131	162
0	2335	361.14761621131	163
0	2339	361.739710237547	164
0	2340	361.739710237547	165
0	2341	362.044946763069	164
0	2347	362.246618647313	165
0	2348	362.246618647313	166
0	2349	363.044946763069	165
0	2352	364.044946763069	164
0	2355	365.044946763069	163
0	2361	365.853906479206	164
0	2362	365.853906479206	165
0	2363	366.044946763069	164
0	2366	367.044946763069	163
0	2372	367.132804077628	164
0	2373	367.132804077628	165
0	2377	367.981015940691	166
0	2378	367.981015940691	167
0	2379	368.044946763069	166
0	2382	369.044946763069	165
0	2385	370.044946763069	164
0	2391	370.36905739133	165
0	2392	370.36905739133	166
0	2393	371.044946763069	165
0	2399	371.65819685171	166
0	2400	371.65819685171	167
0	2401	372.044946763069	166
0	2404	373.044946763069	165
0	2410	373.634786256761	166
0	2411	373.634786256761	167
0	2412	374.044946763069	166
0	2418	374.64034288696	167
0	2419	374.64034288696	168
0	2423	375.027219323246	169
0	2424	375.027219323246	170
0	2425	375.044946763069	169
0	2428	376.044946763069	168
0	2431	377.044946763069	167
0	2434	378.044946763069	166
0	2437	379.044946763069	165
0	2443	379.254130476476	166
0	2444	379.254130476476	167
0	2445	380.044946763069	166
0	2451	380.7624913103	167
0	2452	380.7624913103	168
0	2453	381.044946763069	167
0	2456	382.044946763069	166
0	2459	383.044946763069	165
0	2465	383.273067915768	166
0	2466	383.273067915768	167
0	2470	383.588865851001	168
0	2471	383.588865851001	169
0	2472	384.044946763069	168
0	2475	385.044946763069	167
0	2481	385.198882201801	168
0	2482	385.198882201801	169
0	2486	385.288382389836	170
0	2487	385.288382389836	171
0	2491	385.930520921164	172
0	2492	385.930520921164	173
0	2493	386.044946763069	172
0	2496	387.044946763069	171
0	2499	388.044946763069	170
0	2505	388.745906365302	171
0	2506	388.745906365302	172
0	2507	389.044946763069	171
0	2510	390.044946763069	170
0	2516	390.066282621772	171
0	2517	390.066282621772	172
0	2521	390.142392368299	173
0	2522	390.142392368299	174
0	2526	390.768873461339	175
0	2527	390.768873461339	176
0	2528	391.044946763069	175
0	2534	391.96105377578	176
0	2535	391.96105377578	177
0	2536	392.044946763069	176
0	2539	393.044946763069	175
0	2545	393.703753581518	176
0	2546	393.703753581518	177
0	2550	393.816136959853	178
0	2551	393.816136959853	179
0	2552	394.044946763069	178
0	2558	394.900446629901	179
0	2559	394.900446629901	180
0	2560	395.044946763069	179
0	2566	395.050862680907	180
0	2567	395.050862680907	181
0	2568	396.044946763069	180
0	2571	397.044946763069	179
0	2574	398.044946763069	178
0	2580	398.311127323899	179
0	2581	398.311127323899	180
0	2582	399.044946763069	179
0	2588	399.395628310237	180
0	2589	399.395628310237	181
0	2590	400.044946763069	180
0	2593	401.044946763069	179
0	2596	402.044946763069	178
0	2602	402.54707580099	179
0	2603	402.54707580099	180
0	2604	403.044946763069	179
0	2610	403.637759908051	180
0	2611	403.637759908051	181
0	2615	403.665289312761	182
0	2616	403.665289312761	183
0	2617	404.044946763069	182
0	2620	405.044946763069	181
0	2623	406.044946763069	180
0	2629	406.793588009466	181
0	2630	406.793588009466	182
0	2631	407.044946763069	181
0	2634	408.044946763069	180
0	2640	408.923059678012	181
0	2641	408.923059678012	182
0	2642	409.044946763069	181
0	2648	409.605910854361	182
0	2649	409.605910854361	183
0	2650	410.044946763069	182
0	2656	410.710140997044	183
0	2657	410.710140997044	184
0	2661	410.862148279545	185
0	2662	410.862148279545	186
0	2663	411.044946763069	185
0	2666	412.044946763069	184
0	2669	413.044946763069	183
0	2672	414.044946763069	182
0	2678	414.144409730808	183
0	2679	414.144409730808	184
0	2680	415.044946763069	183
0	2686	415.34310320838	184
0	2687	415.34310320838	185
0	2691	415.858947148144	186
0	2692	415.858947148144	187
0	2693	416.044946763069	186
0	2696	417.044946763069	185
0	2702	417.527073719316	186
0	2703	417.527073719316	187
0	2707	417.855452082026	188
0	2708	417.855452082026	189
0	2709	418.044946763069	188
0	2712	419.044946763069	187
0	2718	419.283001945191	188
0	2719	419.283001945191	189
0	2720	420.044946763069	188
0	2726	420.840296040876	189
0	2727	420.840296040876	190
0	2731	420.937931368857	191
0	2732	420.937931368857	192
0	2733	421.044946763069	191
0	2739	421.179492982296	192
0	2740	421.179492982296	193
0	2741	422.044946763069	192
0	2747	422.738932967899	193
0	2748	422.738932967899	194
0	2749	423.044946763069	193
0	2752	424.044946763069	192
0	2755	425.044946763069	191
0	2761	425.939264960605	192
0	2762	425.939264960605	193
0	2763	426.044946763069	192
0	2766	427.044946763069	191
0	2772	427.412253881497	192
0	2773	427.412253881497	193
0	2777	427.553065221356	194
0	2778	427.553065221356	195
0	2782	428.001468243449	196
0	2783	428.001468243449	197
0	2784	428.044946763069	196
0	2790	428.808139378537	197
0	2791	428.808139378537	198
0	2792	429.044946763069	197
0	2798	429.676890025875	198
0	2799	429.676890025875	199
0	2800	430.044946763069	198
0	2803	431.044946763069	197
0	2806	432.044946763069	196
0	2812	432.807585762151	197
0	2813	432.807585762151	198
0	2814	433.044946763069	197
0	2820	433.607271378408	198
0	2821	433.607271378408	199
0	2825	433.879914147012	200
0	2826	433.879914147012	201
0	2827	434.044946763069	200
0	2830	435.044946763069	199
0	2836	435.767686675202	200
0	2837	435.767686675202	201
0	2838	436.044946763069	200
0	2841	437.044946763069	199
0	2847	437.978316639763	200
0	2848	437.978316639763	201
0	2849	438.044946763069	200
0	2855	438.339632096511	201
0	2856	438.339632096511	202
0	2857	439.044946763069	201
0	2863	439.244986988733	202
0	2864	439.244986988733	203
0	2868	439.618923208418	204
0	2869	439.618923208418	205
0	2870	440.044946763069	204
0	2876	440.683538154101	205
0	2877	440.683538154101	206
0	2881	440.95988325476	207
0	2882	440.95988325476	208
0	2883	441.044946763069	207
0	2886	442.044946763069	206
0	2892	442.814978507885	207
0	2893	442.814978507885	208