version 3
run k_MM1_rand-16-20221127-16:03:21-5740
attr configname k_MM1_rand
attr datetime 20221127-16:03:21
attr datetimef 20221127-160321
attr experiment k_MM1_rand
attr inifile omnetpp.ini
attr iterationvars "$time=2.0, $num=1, $0=53542, $1=75335, $2=34542"
attr iterationvarsd time=2.0/num=1/53542/75335/34542
attr iterationvarsf time=2.0,num=1,53542,75335,34542-
attr measurement "$time=2.0, $num=1, $0=53542, $1=75335, $2=34542"
attr network randkMM1
attr processid 5740
attr repetition 0
attr replication #0
attr resultdir results
attr runnumber 16
attr seedset 16
itervar num 1
itervar time 2.0
config description "MM1 module k-times random"
config network randkMM1
config **.source.interArrivalTime "truncnormal(0.5s, 1.5s)"
config **.serviceTime 2.0s
config **.c 1
config **.capacity 10000
config record-eventlog false
config **.scalar-recording true
config **.vector-recording true
config repeat 4
config seed-1-mt 53542
config seed-2-mt 75335
config seed-3-mt 34542
config output-vector-file k_MM1_rand-1-2.0-results/0.vec
config output-scalar-file k_MM1_rand-1-2.0-results/0.sca

vector 0 randkMM1.mm1[0] queueLength:vector ETV
attr interpolationmode none
attr recordingmode vector
attr title "queue length"
vector 1 randkMM1.mm1[0] util:vector ETV
attr interpolationmode none
attr recordingmode vector
attr title resources
0	5	10	1
0	9	10.006026459537	2
0	10	10.006026459537	3
0	11	12	2
0	17	12.22096136555	3
0	18	12.22096136555	4
0	22	13.01487336966	5
0	23	13.01487336966	6
0	27	13.114413360045	7
0	28	13.114413360045	8
0	29	14	7
0	35	14.219519322918	8
0	36	14.219519322918	9
0	40	15.316193666203	10
0	41	15.316193666203	11
0	42	16	10
0	48	16.136794865872	11
0	49	16.136794865872	12
0	53	17.556598747467	13
0	54	17.556598747467	14
0	58	17.929391047641	15
0	59	17.929391047641	16
0	60	18	15
0	66	18.125990359299	16
0	67	18.125990359299	17
0	68	20	16
0	74	20.048025518813	17
0	75	20.048025518813	18
0	79	20.175067858887	19
0	80	20.175067858887	20
0	84	20.24004076724	21
0	85	20.24004076724	22
0	89	21.883190231108	23
0	90	21.883190231108	24
0	91	22	23
0	97	22.08425376368	24
0	98	22.08425376368	25
0	102	23.737026711968	26
0	103	23.737026711968	27
0	104	24	26
0	110	24.801234824479	27
0	111	24.801234824479	28
0	115	25.716701481449	29
0	116	25.716701481449	30
0	117	26	29
0	123	26.99849496534	30
0	124	26.99849496534	31
0	128	27.629837567299	32
0	129	27.629837567299	33
0	130	28	32
0	133	30	31
0	139	30.027087735652	32
0	140	30.027087735652	33
0	144	30.935111042145	34
0	145	30.935111042145	35
0	146	32	34
0	152	32.199675025203	35
0	153	32.199675025203	36
0	154	34	35
0	160	34.896836388015	36
0	161	34.896836388015	37
0	165	35.15212891314	38
0	166	35.15212891314	39
0	167	36	38
0	173	36.518539729415	39
0	174	36.518539729415	40
0	178	36.826741147005	41
0	179	36.826741147005	42
0	183	37.407783686614	43
0	184	37.407783686614	44
0	185	38	43
0	191	38.065959718893	44
0	192	38.065959718893	45
0	196	38.767412779545	46
0	197	38.767412779545	47
0	198	40	46
0	204	40.326030767112	47
0	205	40.326030767112	48
0	209	41.097988789611	49
0	210	41.097988789611	50
0	211	42	49
0	217	42.321636294286	50
0	218	42.321636294286	51
0	222	42.588081066659	52
0	223	42.588081066659	53
0	227	43.191246444973	54
0	228	43.191246444973	55
0	229	44	54
0	235	44.733948784595	55
0	236	44.733948784595	56
0	240	45.326107136545	57
0	241	45.326107136545	58
0	242	46	57
0	248	46.109340006637	58
0	249	46.109340006637	59
0	250	48	58
0	253	50	57
0	259	50.621446944928	58
0	260	50.621446944928	59
0	261	52	58
0	267	53.782136683087	59
0	268	53.782136683087	60
0	269	54	59
0	275	54.4381711448	60
0	276	54.4381711448	61
0	280	55.148302244399	62
0	281	55.148302244399	63
0	285	55.468790021429	64
0	286	55.468790021429	65
0	287	56	64
0	293	57.024000506501	65
0	294	57.024000506501	66
0	295	58	65
0	301	58.010946524155	66
0	302	58.010946524155	67
0	303	60	66
0	309	61.142958084256	67
0	310	61.142958084256	68
0	311	62	67
0	317	62.641579470272	68
0	318	62.641579470272	69
0	319	64	68
0	325	65.275081627095	69
0	326	65.275081627095	70
0	327	66	69
0	333	66.60239288381	70
0	334	66.60239288381	71
0	338	67.705096609159	72
0	339	67.705096609159	73
0	340	68	72
0	346	68.148558389048	73
0	347	68.148558389048	74
0	351	68.564341015428	75
0	352	68.564341015428	76
0	356	69.968330824963	77
0	357	69.968330824963	78
0	358	70	77
0	364	71.162661276154	78
0	365	71.162661276154	79
0	366	72	78
0	372	72.781529377078	79
0	373	72.781529377078	80
0	374	74	79
0	380	75.282948316939	80
0	381	75.282948316939	81
0	382	76	80
0	388	77.750152337799	81
0	389	77.750152337799	82
0	390	78	81
0	396	78.611411534538	82
0	397	78.611411534538	83
0	398	80	82
0	401	82	81
0	407	82.814832761931	82
0	408	82.814832761931	83
0	412	83.843664557895	84
0	413	83.843664557895	85
0	414	84	84
0	420	85.346622621481	85
0	421	85.346622621481	86
0	422	86	85
0	425	88	84
0	431	88.911776885691	85
0	432	88.911776885691	86
0	433	90	85
0	439	90.337997865397	86
0	440	90.337997865397	87
0	441	92	86
0	447	92.356438740159	87
0	448	92.356438740159	88
0	449	94	87
0	455	94.525027533347	88
0	456	94.525027533347	89
0	460	95.452455110629	90
0	461	95.452455110629	91
0	462	96	90
0	468	96.71629549676	91
0	469	96.71629549676	92
0	473	97.572706717422	93
0	474	97.572706717422	94
0	475	98	93
0	481	98.10181320269	94
0	482	98.10181320269	95
0	483	100	94
0	489	101.470320028944	95
0	490	101.470320028944	96
0	494	101.712539002314	97
0	495	101.712539002314	98
0	496	102	97
0	502	103.095779157631	98
0	503	103.095779157631	99
0	504	104	98
0	510	104.605747789872	99
0	511	104.605747789872	100
0	512	106	99
0	518	107.151786052817	100
0	519	107.151786052817	101
0	523	107.4376208314	102
0	524	107.4376208314	103
0	525	108	102
0	531	108.372592313374	103
0	532	108.372592313374	104
0	533	110	103
0	536	112	102
0	542	112.063726393563	103
0	543	112.063726393563	104
0	547	112.874933000735	105
0	548	112.874933000735	106
0	552	113.99635326941	107
0	553	113.99635326941	108
0	554	114	107
0	557	116	106
0	563	117.315065619309	107
0	564	117.315065619309	108
0	565	118	107
0	571	119.074979070895	108
0	572	119.074979070895	109
0	573	120	108
0	579	120.518002691399	109
0	580	120.518002691399	110
0	581	122	109
0	587	122.276916750395	110
0	588	122.276916750395	111
0	592	123.206766057695	112
0	593	123.206766057695	113
0	594	124	112
0	597	126	111
0	603	126.921245590123	112
0	604	126.921245590123	113
0	608	127.586771714632	114
0	609	127.586771714632	115
0	610	128	114
0	616	129.511085339782	115
0	617	129.511085339782	116
0	618	130	115
0	621	132	114
0	627	132.167859175878	115
0	628	132.167859175878	116
0	632	133.056710600593	117
0	633	133.056710600593	118
0	634	134	117
0	640	135.001676484387	118
0	641	135.001676484387	119
0	645	135.08546503855	120
0	646	135.08546503855	121
0	647	136	120
0	653	137.52720371224	121
0	654	137.52720371224	122
0	655	138	121
0	661	138.254407060706	122
0	662	138.254407060706	123
0	666	139.249869267246	124
0	667	139.249869267246	125
0	668	140	124
0	674	140.968362698637	125
0	675	140.968362698637	126
0	679	141.944544974044	127
0	680	141.944544974044	128
0	681	142	127
0	687	142.518111481017	128
0	688	142.518111481017	129
0	689	144	128
0	692	146	127
0	698	146.773749014501	128
0	699	146.773749014501	129
0	700	148	128
0	706	148.379415949882	129
0	707	148.379415949882	130
0	708	150	129
0	714	150.318813947063	130
0	715	150.318813947063	131
0	719	150.854158566225	132
0	720	150.854158566225	133
0	724	151.700493441211	134
0	725	151.700493441211	135
0	726	152	134
0	729	154	133
0	735	154.133064894713	134
0	736	154.133064894713	135
0	737	156	134
0	743	156.027597467725	135
0	744	156.027597467725	136
0	748	156.551806306198	137
0	749	156.551806306198	138
0	753	156.642100054509	139
0	754	156.642100054509	140
0	755	158	139
0	761	159.117183470272	140
0	762	159.117183470272	141
0	766	159.355365074275	142
0	767	159.355365074275	143
0	768	160	142
0	774	161.33736092019	143
0	775	161.33736092019	144
0	776	162	143
0	782	162.970675430484	144
0	783	162.970675430484	145
0	787	163.594690365075	146
0	788	163.594690365075	147
0	789	164	146
0	795	164.316874476248	147
0	796	164.316874476248	148
0	800	164.602112964006	149
0	801	164.602112964006	150
0	805	165.63740083988	151
0	806	165.63740083988	152
0	807	166	151
0	813	166.78087941909	152
0	814	166.78087941909	153
0	818	167.691216589752	154
0	819	167.691216589752	155
0	823	167.966797829724	156
0	824	167.966797829724	157
0	825	168	156
0	831	169.714728735475	157
0	832	169.714728735475	158
0	833	170	157
0	839	170.079280705558	158
0	840	170.079280705558	159
0	844	171.787195737622	160
0	845	171.787195737622	161
0	846	172	160
0	852	172.774783009442	161
0	853	172.774783009442	162
0	857	173.169812496774	163
0	858	173.169812496774	164
0	859	174	163
0	865	175.372111140976	164
0	866	175.372111140976	165
0	867	176	164
0	873	177.419682029742	165
0	874	177.419682029742	166
0	875	178	165
0	881	179.527500967574	166
0	882	179.527500967574	167
0	883	180	166
0	889	180.147727615107	167
0	890	180.147727615107	168
0	894	180.574089285246	169
0	895	180.574089285246	170
0	896	182	169
0	902	182.162266373678	170
0	903	182.162266373678	171
0	907	183.897090721372	172
0	908	183.897090721372	173
0	909	184	172
0	915	185.761102422443	173
0	916	185.761102422443	174
0	920	185.767546412685	175
0	921	185.767546412685	176
0	925	185.927761732338	177
0	926	185.927761732338	178
0	927	186	177
0	933	186.215644958379	178
0	934	186.215644958379	179
0	935	188	178
0	941	188.197969671891	179
0	942	188.197969671891	180
0	943	190	179
0	949	190.150852077392	180
0	950	190.150852077392	181
0	954	191.366914298908	182
0	955	191.366914298908	183
0	956	192	182
0	959	194	181
0	965	195.081037690026	182
0	966	195.081037690026	183
0	970	195.813430923636	184
0	971	195.813430923636	185
0	972	196	184
0	978	197.431647205409	185
0	979	197.431647205409	186
0	980	198	185
0	986	198.920906312668	186
0	987	198.920906312668	187
0	988	200	186
0	994	200.147197750726	187
0	995	200.147197750726	188
0	999	200.528716423884	189
0	1000	200.528716423884	190
0	1004	200.600918254079	191
0	1005	200.600918254079	192
0	1009	200.987938945138	193
0	1010	200.987938945138	194
0	1011	202	193
0	1017	202.428551057042	194
0	1018	202.428551057042	195
0	1022	203.164086891023	196
0	1023	203.164086891023	197
0	1024	204	196
0	1030	205.628369710324	197
0	1031	205.628369710324	198
0	1035	205.791869258703	199
0	1036	205.791869258703	200
0	1037	206	199
0	1043	206.982516199619	200
0	1044	206.982516199619	201
0	1045	208	200
0	1051	208.524792829545	201
0	1052	208.524792829545	202
0	1056	209.781687842544	203
0	1057	209.781687842544	204
0	1058	210	203
0	1064	210.134186108784	204
0	1065	210.134186108784	205
0	1069	210.634005489159	206
0	1070	210.634005489159	207
0	1074	210.714581573305	208
0	1075	210.714581573305	209
0	1076	212	208
0	1082	212.449833119284	209
0	1083	212.449833119284	210
0	1084	214	209
0	1090	214.952133373752	210
0	1091	214.952133373752	211
0	1095	215.146077487025	212
0	1096	215.146077487025	213
0	1097	216	212
0	1103	216.211463596566	213
0	1104	216.211463596566	214
0	1108	216.685065906954	215
0	1109	216.685065906954	216
0	1110	218	215
0	1116	218.469921116478	216
0	1117	218.469921116478	217
0	1121	219.997174884596	218
0	1122	219.997174884596	219
0	1123	220	218
0	1126	222	217
0	1132	223.499956901652	218
0	1133	223.499956901652	219
0	1134	224	218
0	1140	224.284810289111	219
0	1141	224.284810289111	220
0	1145	224.50768341722	221
0	1146	224.50768341722	222
0	1150	225.694828867749	223
0	1151	225.694828867749	224
0	1155	225.706922367283	225
0	1156	225.706922367283	226
0	1157	226	225
0	1163	227.11506528129	226
0	1164	227.11506528129	227
0	1165	228	226
0	1171	229.007797487629	227
0	1172	229.007797487629	228
0	1173	230	227
0	1179	230.543564380081	228
0	1180	230.543564380081	229
0	1184	231.679476262247	230
0	1185	231.679476262247	231
0	1186	232	230
0	1192	233.70378238133	231
0	1193	233.70378238133	232
0	1194	234	231
0	1197	236	230
0	1203	237.408335080889	231
0	1204	237.408335080889	232
0	1205	238	231
0	1211	238.160998392779	232
0	1212	238.160998392779	233
0	1216	238.719579753671	234
0	1217	238.719579753671	235
0	1221	239.651895140971	236
0	1222	239.651895140971	237
0	1223	240	236
0	1229	240.655537869824	237
0	1230	240.655537869824	238
0	1234	241.821504077883	239
0	1235	241.821504077883	240
0	1236	242	239
0	1242	242.860946086204	240
0	1243	242.860946086204	241
0	1247	243.501375349226	242
0	1248	243.501375349226	243
0	1249	244	242
0	1255	244.388340779814	243
0	1256	244.388340779814	244
0	1260	244.413847703304	245
0	1261	244.413847703304	246
0	1265	245.719857221658	247
0	1266	245.719857221658	248
0	1270	245.901807964751	249
0	1271	245.901807964751	250
0	1272	246	249
0	1278	246.132228671969	250
0	1279	246.132228671969	251
0	1283	246.149494789822	252
0	1284	246.149494789822	253
0	1288	247.757214252504	254
0	1289	247.757214252504	255
0	1290	248	254
0	1296	249.232876091179	255
0	1297	249.232876091179	256
0	1298	250	255
0	1301	252	254
0	1307	253.237993239244	255
0	1308	253.237993239244	256
0	1309	254	255
0	1315	254.024383142217	256
0	1316	254.024383142217	257
0	1317	256	256
0	1323	256.021359502021	257
0	1324	256.021359502021	258
0	1328	257.042973485776	259
0	1329	257.042973485776	260
0	1330	258	259
0	1336	259.070537427379	260
0	1337	259.070537427379	261
0	1341	259.258565082669	262
0	1342	259.258565082669	263
0	1343	260	262
0	1349	261.247643989706	263
0	1350	261.247643989706	264
0	1351	262	263
0	1357	262.514000768049	264
0	1358	262.514000768049	265
0	1362	263.682429065552	266
0	1363	263.682429065552	267
0	1364	264	266
0	1370	265.535151563445	267
0	1371	265.535151563445	268
0	1372	266	267
0	1375	268	266
0	1381	268.470923686955	267
0	1382	268.470923686955	268
0	1386	268.869693401543	269
0	1387	268.869693401543	270
0	1391	268.891969258606	271
0	1392	268.891969258606	272
0	1393	270	271
0	1399	270.055860429236	272
0	1400	270.055860429236	273
0	1401	272	272
0	1407	272.032022917854	273
0	1408	272.032022917854	274
0	1412	272.083836035888	275
0	1413	272.083836035888	276
0	1417	273.265043322479	277
0	1418	273.265043322479	278
0	1419	274	277
0	1425	274.641289637732	278
0	1426	274.641289637732	279
0	1430	275.92961269989	280
0	1431	275.92961269989	281
0	1432	276	280
0	1438	277.517982142484	281
0	1439	277.517982142484	282
0	1443	277.943199717177	283
0	1444	277.943199717177	284
0	1445	278	283
0	1448	280	282
0	1454	281.825300412415	283
0	1455	281.825300412415	284
0	1456	282	283
0	1459	284	282
0	1462	286	281
0	1468	287.083223882114	282
0	1469	287.083223882114	283
0	1473	287.131906802176	284
0	1474	287.131906802176	285
0	1475	288	284
0	1481	288.94616801501	285
0	1482	288.94616801501	286
0	1483	290	285
0	1489	290.686212130984	286
0	1490	290.686212130984	287
0	1494	291.71385361367	288
0	1495	291.71385361367	289
0	1496	292	288
0	1502	292.958737188441	289
0	1503	292.958737188441	290
0	1507	293.992635191871	291
0	1508	293.992635191871	292
0	1509	294	291
0	1512	296	290
0	1518	296.657316526216	291
0	1519	296.657316526216	292
0	1520	298	291
0	1526	299.830620290977	292
0	1527	299.830620290977	293
0	1528	300	292
0	1534	300.730260406043	293
0	1535	300.730260406043	294
0	1536	302	293
0	1542	302.641129140776	294
0	1543	302.641129140776	295
0	1547	303.805140512632	296
0	1548	303.805140512632	297
0	1549	304	296
0	1555	304.925950007336	297
0	1556	304.925950007336	298
0	1557	306	297
0	1563	306.552659771484	298
0	1564	306.552659771484	299
0	1565	308	298
0	1571	308.14361976428	299
0	1572	308.14361976428	300
0	1576	308.293218494004	301
0	1577	308.293218494004	302
0	1581	308.785965629846	303
0	1582	308.785965629846	304
0	1583	310	303
0	1589	310.267712043273	304
0	1590	310.267712043273	305
0	1594	311.777699671546	306
0	1595	311.777699671546	307
0	1596	312	306
0	1602	313.200914715679	307
0	1603	313.200914715679	308
0	1604	314	307
0	1610	314.310681167206	308
0	1611	314.310681167206	309
0	1615	315.361857714867	310
0	1616	315.361857714867	311
0	1617	316	310
0	1623	316.142955943297	311
0	1624	316.142955943297	312
0	1625	318	311
0	1631	318.383707484469	312
0	1632	318.383707484469	313
0	1636	318.992163282967	314
0	1637	318.992163282967	315
0	1638	320	314
0	1644	321.420350142472	315
0	1645	321.420350142472	316
0	1649	321.659750088822	317
0	1650	321.659750088822	318
0	1651	322	317
0	1657	323.48521564977	318
0	1658	323.48521564977	319
0	1659	324	318
0	1665	324.48262680426	319
0	1666	324.48262680426	320
0	1667	326	319
0	1673	326.115685908802	320
0	1674	326.115685908802	321
0	1678	327.483896080904	322
0	1679	327.483896080904	323
0	1680	328	322
0	1683	330	321
0	1689	331.58511062764	322
0	1690	331.58511062764	323
0	1691	332	322
0	1697	332.968904767936	323
0	1698	332.968904767936	324
0	1699	334	323
0	1705	335.046430763263	324
0	1706	335.046430763263	325
0	1710	335.696023480628	326
0	1711	335.696023480628	327
0	1715	335.990248315917	328
0	1716	335.990248315917	329
0	1717	336	328
0	1723	336.815754841009	329
0	1724	336.815754841009	330
0	1725	338	329
0	1731	338.971305215843	330
0	1732	338.971305215843	331
0	1733	340	330
0	1736	342	329
0	1742	342.233047077918	330
0	1743	342.233047077918	331
0	1747	342.983542999211	332
0	1748	342.983542999211	333
0	1752	343.991799326481	334
0	1753	343.991799326481	335
0	1754	344	334
0	1757	346	333
0	1763	346.667843450514	334
0	1764	346.667843450514	335
0	1765	348	334
0	1771	348.174985754655	335
0	1772	348.174985754655	336
0	1776	348.407111923699	337
0	1777	348.407111923699	338
0	1781	349.315269811384	339
0	1782	349.315269811384	340
0	1783	350	339
0	1789	351.980731769011	340
0	1790	351.980731769011	341
0	1791	352	340
0	1794	354	339
0	1800	354.597037654068	340
0	1801	354.597037654068	341
0	1805	355.581950983389	342
0	1806	355.581950983389	343
0	1807	356	342
0	1813	357.727041800865	343
0	1814	357.727041800865	344
0	1818	357.804949651566	345
0	1819	357.804949651566	346
0	1823	357.955891476956	347
0	1824	357.955891476956	348
0	1825	358	347
0	1828	360	346
0	1834	360.48042623022	347
0	1835	360.48042623022	348
0	1839	361.796155912821	349
0	1840	361.796155912821	350
0	1841	362	349
0	1847	363.811677075245	350
0	1848	363.811677075245	351
0	1849	364	350
0	1855	365.47463334189	351
0	1856	365.47463334189	352
0	1857	366	351
0	1863	366.908888252637	352
0	1864	366.908888252637	353
0	1868	367.84369386453	354
0	1869	367.84369386453	355
0	1870	368	354
0	1876	368.570769622641	355
0	1877	368.570769622641	356
0	1881	369.65001509144	357
0	1882	369.65001509144	358
0	1883	370	357
0	1889	370.77867333838	358
0	1890	370.77867333838	359
0	1891	372	358
0	1897	372.149397926677	359
0	1898	372.149397926677	360
0	1899	374	359
0	1905	374.401507892822	360
0	1906	374.401507892822	361
0	1910	374.981244740507	362
0	1911	374.981244740507	363
0	1912	376	362
0	1918	376.454728557934	363
0	1919	376.454728557934	364
0	1923	376.855919528978	365
0	1924	376.855919528978	366
0	1928	377.196833637211	367
0	1929	377.196833637211	368
0	1933	377.622415735258	369
0	1934	377.622415735258	370
0	1935	378	369
0	1938	380	368
0	1944	380.094216410972	369
0	1945	380.094216410972	370
0	1949	381.455144655311	371
0	1950	381.455144655311	372
0	1951	382	371
0	1957	382.604673994649	372
0	1958	382.604673994649	373
0	1962	383.228744984646	374
0	1963	383.228744984646	375
0	1967	383.695546452986	376
0	1968	383.695546452986	377
0	1969	384	376
0	1975	385.247038146741	377
0	1976	385.247038146741	378
0	1977	386	377
0	1983	387.33605794923	378
0	1984	387.33605794923	379
0	1985	388	378
0	1988	390	377
0	1994	390.985255349574	378
0	1995	390.985255349574	379
0	1999	391.210481684696	380
0	2000	391.210481684696	381
0	2001	392	380
0	2007	392.462000627023	381
0	2008	392.462000627023	382
0	2012	392.700846026194	383
0	2013	392.700846026194	384
0	2017	392.702650544022	385
0	2018	392.702650544022	386
0	2022	393.951889467766	387
0	2023	393.951889467766	388
0	2024	394	387
0	2027	396	386
0	2033	396.928021519866	387
0	2034	396.928021519866	388
0	2035	398	387
0	2038	400	386
0	2044	400.10353299948	387
0	2045	400.10353299948	388
0	2049	400.231191639903	389
0	2050	400.231191639903	390
0	2054	400.758178129827	391
0	2055	400.758178129827	392
0	2059	401.49295178163	393
0	2060	401.49295178163	394
0	2061	402	393
0	2064	404	392
0	2070	405.220107068152	393
0	2071	405.220107068152	394
0	2072	406	393
0	2078	406.657470051013	394
0	2079	406.657470051013	395
0	2083	407.067864791967	396
0	2084	407.067864791967	397
0	2088	407.831541994333	398
0	2089	407.831541994333	399
0	2090	408	398
0	2096	408.38523186508	399
0	2097	408.38523186508	400
0	2098	410	399
0	2104	411.276798715343	400
0	2105	411.276798715343	401
0	2109	411.935705799918	402
0	2110	411.935705799918	403
0	2111	412	402
0	2117	413.070008156151	403
0	2118	413.070008156151	404
0	2122	413.541487409123	405
0	2123	413.541487409123	406
0	2124	414	405
0	2127	416	404
0	2130	418	403
0	2136	418.992813824595	404
0	2137	418.992813824595	405
0	2138	420	404
0	2144	420.997479086133	405
0	2145	420.997479086133	406
0	2149	421.922023364728	407
0	2150	421.922023364728	408
0	2151	422	407
0	2157	423.509499484496	408
0	2158	423.509499484496	409
0	2159	424	408
0	2165	425.105583016685	409
0	2166	425.105583016685	410
0	2170	425.897406953011	411
0	2171	425.897406953011	412
0	2172	426	411
0	2178	426.63578591438	412
0	2179	426.63578591438	413
0	2183	427.760069901153	414
0	2184	427.760069901153	415
0	2185	428	414
0	2191	429.776100401735	415
0	2192	429.776100401735	416
0	2193	430	415
0	2199	430.423174458185	416
0	2200	430.423174458185	417
0	2204	431.51152508405	418
0	2205	431.51152508405	419
0	2206	432	418
0	2212	433.466851032878	419
0	2213	433.466851032878	420
0	2217	433.525572257739	421
0	2218	433.525572257739	422
0	2219	434	421
0	2225	434.805954009278	422
0	2226	434.805954009278	423
0	2230	435.628722870199	424
0	2231	435.628722870199	425
0	2232	436	424
0	2238	437.148947016881	425
0	2239	437.148947016881	426
0	2240	438	425
0	2246	438.703744286128	426
0	2247	438.703744286128	427
0	2248	440	426
0	2251	442	425
0	2257	442.4820522802	426
0	2258	442.4820522802	427
0	2262	443.340682292666	428
0	2263	443.340682292666	429
0	2264	444	428
0	2270	444.572805772294	429
0	2271	444.572805772294	430
0	2275	445.681626129432	431
0	2276	445.681626129432	432
0	2277	446	431
0	2283	447.515337119587	432
0	2284	447.515337119587	433
0	2285	448	432
0	2288	450	431
0	2294	450.13103555175	432
0	2295	450.13103555175	433
0	2296	452	432
0	2302	453.787837940258	433
0	2303	453.787837940258	434
0	2304	454	433
0	2307	456	432
0	2313	456.384116387569	433
0	2314	456.384116387569	434
0	2318	456.437500528589	435
0	2319	456.437500528589	436
0	2320	458	435
0	2326	458.811167999825	436
0	2327	458.811167999825	437
0	2331	459.458628151519	438
0	2332	459.458628151519	439
0	2336	459.490852435894	440
0	2337	459.490852435894	441
0	2341	459.833974122613	442
0	2342	459.833974122613	443
0	2343	460	442
0	2349	461.431752580223	443
0	2350	461.431752580223	444
0	2351	462	443
0	2357	462.849001305601	444
0	2358	462.849001305601	445
0	2362	463.2309625621	446
0	2363	463.2309625621	447
0	2364	464	446
0	2370	465.115679419977	447
0	2371	465.115679419977	448
0	2372	466	447
0	2378	466.639595239618	448
0	2379	466.639595239618	449
0	2383	467.677287057792	450
0	2384	467.677287057792	451
0	2385	468	450
0	2391	469.755026925812	451
0	2392	469.755026925812	452
0	2393	470	451
0	2399	470.087659257122	452
0	2400	470.087659257122	453
0	2404	470.390912728455	454
0	2405	470.390912728455	455
0	2406	472	454
0	2412	473.077570188963	455
0	2413	473.077570188963	456
0	2414	474	455
0	2420	474.899082272244	456
0	2421	474.899082272244	457
0	2422	476	456
0	2428	476.078908861045	457
0	2429	476.078908861045	458
0	2433	477.156797407955	459
0	2434	477.156797407955	460
0	2438	477.321795718387	461
0	2439	477.321795718387	462
0	2443	477.969579504527	463
0	2444	477.969579504527	464
0	2445	478	463
0	2448	480	462
0	2454	480.04366638523	463
0	2455	480.04366638523	464
0	2456	482	463
0	2459	484	462
0	2465	484.420079423128	463
0	2466	484.420079423128	464
0	2470	485.35541505148	465
0	2471	485.35541505148	466
0	2475	485.903048910799	467
0	2476	485.903048910799	468
0	2477	486	467
0	2483	486.598784813187	468
0	2484	486.598784813187	469
0	2485	488	468
0	2491	489.000280988917	469
0	2492	489.000280988917	470
0	2493	490	469
0	2499	490.045512471595	470
0	2500	490.045512471595	471
0	2504	490.633268793879	472
0	2505	490.633268793879	473
0	2509	491.211526188662	474
0	2510	491.211526188662	475
0	2511	492	474
0	2517	493.183103531858	475
0	2518	493.183103531858	476
0	2519	494	475
0	2525	495.676506700391	476
0	2526	495.676506700391	477
0	2527	496	476
0	2533	497.220283542258	477
0	2534	497.220283542258	478
0	2538	497.234729176392	479
0	2539	497.234729176392	480
0	2543	497.46536444675	481
0	2544	497.46536444675	482
0	2545	498	481
0	2548	500	480
0	2554	500.474975683122	481
0	2555	500.474975683122	482
0	2559	500.790411125152	483
0	2560	500.790411125152	484
0	2561	502	483
0	2567	502.237598850113	484
0	2568	502.237598850113	485
0	2572	502.421385131376	486
0	2573	502.421385131376	487
0	2577	503.416597509177	488
0	2578	503.416597509177	489
0	2579	504	488
0	2585	505.038736327888	489
0	2586	505.038736327888	490
0	2587	506	489
0	2590	508	488
0	2596	508.153550840212	489
0	2597	508.153550840212	490
0	2601	508.672146025932	491
0	2602	508.672146025932	492
0	2603	510	491
0	2606	512	490
0	2612	513.700847173935	491
0	2613	513.700847173935	492
0	2614	514	491
0	2620	515.722082876084	492
0	2621	515.722082876084	493
0	2622	516	492
0	2628	517.691924086864	493
0	2629	517.691924086864	494
0	2630	518	493
0	2636	518.244059473692	494
0	2637	518.244059473692	495
0	2641	518.269312780343	496
0	2642	518.269312780343	497
0	2643	520	496
0	2646	522	495
0	2652	522.364967265454	496
0	2653	522.364967265454	497
0	2654	524	496
0	2660	524.665616204679	497
0	2661	524.665616204679	498
0	2665	525.461659941792	499
0	2666	525.461659941792	500
0	2667	526	499
0	2673	526.146638477992	500
0	2674	526.146638477992	501
0	2675	528	500
0	2681	528.327381345386	501
0	2682	528.327381345386	502
0	2683	530	501
0	2689	530.345352586849	502
0	2690	530.345352586849	503
0	2691	532	502
0	2697	532.35671619267	503
0	2698	532.35671619267	504
0	2702	532.869916915193	505
0	2703	532.869916915193	506
0	2707	533.158492911391	507
0	2708	533.158492911391	508
0	2712	533.63889316794	509
0	2713	533.63889316794	510
0	2714	534	509
0	2720	534.746847601077	510
0	2721	534.746847601077	511
0	2722	536	510
0	2728	536.303481001265	511
0	2729	536.303481001265	512
0	2733	536.775935230788	513
0	2734	536.775935230788	514
0	2735	538	513
0	2741	538.056040011569	514
0	2742	538.056040011569	515
0	2746	538.486751716744	516
0	2747	538.486751716744	517
0	2751	538.99971729372	518
0	2752	538.99971729372	519
0	2756	539.590897669064	520
0	2757	539.590897669064	521
0	2758	540	520
0	2764	540.55569402734	521
0	2765	540.55569402734	522
0	2766	542	521
0	2772	542.609540546343	522
0	2773	542.609540546343	523
0	2777	543.212158593397	524
0	2778	543.212158593397	525
0	2779	544	524
0	2785	544.560231050516	525
0	2786	544.560231050516	526
0	2787	546	525
0	2790	548	524
0	2796	549.190948612047	525
0	2797	549.190948612047	526
0	2798	550	525
0	2804	550.365208398472	526
0	2805	550.365208398472	527
0	2809	550.81878493768	528
0	2810	550.81878493768	529
0	2814	551.890363579795	530
0	2815	551.890363579795	531
0	2816	552	530
0	2822	553.252238853759	531
0	2823	553.252238853759	532
0	2824	554	531
0	2830	554.595058501987	532
0	2831	554.595058501987	533
0	2832	556	532
0	2838	556.220755568131	533
0	2839	556.220755568131	534
0	2843	556.421719971866	535
0	2844	556.421719971866	536
0	2845	558	535
0	2851	559.21615733198	536
0	2852	559.21615733198	537
0	2856	559.872569366232	538
0	2857	559.872569366232	539
0	2858	560	538
0	2864	560.099841157798	539
0	2865	560.099841157798	540
0	2869	560.126128053913	541
0	2870	560.126128053913	542
0	2874	560.557787248997	543
0	2875	560.557787248997	544
0	2876	562	543
0	2882	562.311165830999	544
0	2883	562.311165830999	545
0	2884	564	544
0	2890	564.004443903082	545
0	2891	564.004443903082	546
0	2895	564.78110325442	547
0	2896	564.78110325442	548
0	2897	566	547
0	2903	566.003515623092	548
0	2904	566.003515623092	549
0	2908	566.098891992635	550
0	2909	566.098891992635	551
0	2910	568	550
0	2916	568.56709539783	551
0	2917	568.56709539783	552
0	2921	569.631508960374	553
0	2922	569.631508960374	554
0	2923	570	553
0	2929	571.833908912962	554
0	2930	571.833908912962	555
0	2931	572	554
0	2937	573.336046694886	555
0	2938	573.336046694886	556
0	2939	574	555
0	2942	576	554
0	2948	576.795744357388	555
0	2949	576.795744357388	556
0	2950	578	555
0	2953	580	554
0	2959	581.011532998978	555
0	2960	581.011532998978	556
0	2961	582	555
0	2967	582.513223936399	556
0	2968	582.513223936399	557
0	2972	583.131569170969	558
0	2973	583.131569170969	559
0	2974	584	558
0	2980	585.152501971008	559
0	2981	585.152501971008	560
0	2985	585.502326815602	561
0	2986	585.502326815602	562
0	2987	586	561
0	2993	586.566434167764	562
0	2994	586.566434167764	563
0	2995	588	562
0	3001	588.312136271186	563
0	3002	588.312136271186	564
0	3006	588.68997779936	565
0	3007	588.68997779936	566
0	3011	589.261332906173	567
0	3012	589.261332906173	568
0	3013	590	567
0	3016	592	566
0	3022	593.191097656058	567
0	3023	593.191097656058	568
0	3024	594	567
0	3030	594.33832448342	568
0	3031	594.33832448342	569
0	3035	594.677414796106	570
0	3036	594.677414796106	571
0	3040	594.895992480142	572
0	3041	594.895992480142	573
0	3045	595.275654681294	574
0	3046	595.275654681294	575
0	3047	596	574
0	3053	597.759567074251	575
0	3054	597.759567074251	576
0	3055	598	575
0	3061	599.481776478545	576
0	3062	599.481776478545	577
0	3066	599.705411753579	578
0	3067	599.705411753579	579
0	3068	600	578
0	3074	601.471443012695	579
0	3075	601.471443012695	580
0	3076	602	579
0	3082	602.334167461647	580
0	3083	602.334167461647	581
0	3087	602.792538507703	582
0	3088	602.792538507703	583
0	3089	604	582
0	3092	606	581
0	3098	606.480690477501	582
0	3099	606.480690477501	583
0	3103	607.363221516535	584
0	3104	607.363221516535	585
0	3105	608	584
0	3111	608.977213659261	585
0	3112	608.977213659261	586
0	3113	610	585
0	3119	610.484354870303	586
0	3120	610.484354870303	587
0	3124	611.112328262694	588
0	3125	611.112328262694	589
0	3126	612	588
0	3132	612.602320625914	589
0	3133	612.602320625914	590
0	3137	613.943226551174	591
0	3138	613.943226551174	592
0	3139	614	591
0	3145	614.261648266483	592
0	3146	614.261648266483	593