version 3
run k_MM1_rand-17-20221127-16:03:21-5740
attr configname k_MM1_rand
attr datetime 20221127-16:03:21
attr datetimef 20221127-160321
attr experiment k_MM1_rand
attr inifile omnetpp.ini
attr iterationvars "$time=2.0, $num=1, $0=45732, $1=35463, $2=67563"
attr iterationvarsd time=2.0/num=1/45732/35463/67563
attr iterationvarsf time=2.0,num=1,45732,35463,67563-
attr measurement "$time=2.0, $num=1, $0=45732, $1=35463, $2=67563"
attr network randkMM1
attr processid 5740
attr repetition 1
attr replication #1
attr resultdir results
attr runnumber 17
attr seedset 17
itervar num 1
itervar time 2.0
config description "MM1 module k-times random"
config network randkMM1
config **.source.interArrivalTime "truncnormal(0.5s, 1.5s)"
config **.serviceTime 2.0s
config **.c 1
config **.capacity 10000
config record-eventlog false
config **.scalar-recording true
config **.vector-recording true
config repeat 4
config seed-1-mt 45732
config seed-2-mt 35463
config seed-3-mt 67563
config output-vector-file k_MM1_rand-1-2.0-results/1.vec
config output-scalar-file k_MM1_rand-1-2.0-results/1.sca

vector 0 randkMM1.mm1[0] queueLength:vector ETV
attr interpolationmode none
attr recordingmode vector
attr title "queue length"
vector 1 randkMM1.mm1[0] util:vector ETV
attr interpolationmode none
attr recordingmode vector
attr title resources
0	5	10	1
0	9	11.020947318673	2
0	10	11.020947318673	3
0	11	12	2
0	17	12.550512000042	3
0	18	12.550512000042	4
0	22	13.799693543434	5
0	23	13.799693543434	6
0	24	14	5
0	30	14.496281831081	6
0	31	14.496281831081	7
0	32	16	6
0	38	16.745373470187	7
0	39	16.745373470187	8
0	43	17.652377006752	9
0	44	17.652377006752	10
0	45	18	9
0	51	18.422137491628	10
0	52	18.422137491628	11
0	53	20	10
0	59	20.286652045365	11
0	60	20.286652045365	12
0	64	20.617607081737	13
0	65	20.617607081737	14
0	69	20.640561523016	15
0	70	20.640561523016	16
0	71	22	15
0	74	24	14
0	80	24.067743913262	15
0	81	24.067743913262	16
0	85	25.228332295	17
0	86	25.228332295	18
0	90	25.243525260469	19
0	91	25.243525260469	20
0	95	25.433471321422	21
0	96	25.433471321422	22
0	97	26	21
0	103	27.326302040929	22
0	104	27.326302040929	23
0	105	28	22
0	111	29.049784172929	23
0	112	29.049784172929	24
0	113	30	23
0	119	30.992438951253	24
0	120	30.992438951253	25
0	124	31.250307925115	26
0	125	31.250307925115	27
0	129	31.314178044414	28
0	130	31.314178044414	29
0	134	31.940081658992	30
0	135	31.940081658992	31
0	136	32	30
0	142	32.995760860049	31
0	143	32.995760860049	32
0	144	34	31
0	150	34.262908426008	32
0	151	34.262908426008	33
0	155	35.336069067803	34
0	156	35.336069067803	35
0	157	36	34
0	163	36.598521634423	35
0	164	36.598521634423	36
0	168	37.225310900912	37
0	169	37.225310900912	38
0	170	38	37
0	176	39.310595003979	38
0	177	39.310595003979	39
0	178	40	38
0	184	41.083983362476	39
0	185	41.083983362476	40
0	189	41.899968823416	41
0	190	41.899968823416	42
0	191	42	41
0	194	44	40
0	200	44.492938919574	41
0	201	44.492938919574	42
0	202	46	41
0	208	46.158728094454	42
0	209	46.158728094454	43
0	210	48	42
0	216	49.128658910565	43
0	217	49.128658910565	44
0	218	50	43
0	224	50.349508269492	44
0	225	50.349508269492	45
0	229	51.203569241777	46
0	230	51.203569241777	47
0	231	52	46
0	234	54	45
0	240	54.001040832997	46
0	241	54.001040832997	47
0	242	56	46
0	248	56.185272282175	47
0	249	56.185272282175	48
0	253	57.014755769983	49
0	254	57.014755769983	50
0	258	57.686908645167	51
0	259	57.686908645167	52
0	263	57.831246837549	53
0	264	57.831246837549	54
0	265	58	53
0	271	59.867914759946	54
0	272	59.867914759946	55
0	273	60	54
0	279	61.069262390933	55
0	280	61.069262390933	56
0	281	62	55
0	284	64	54
0	290	65.885861625285	55
0	291	65.885861625285	56
0	292	66	55
0	298	66.001838631152	56
0	299	66.001838631152	57
0	303	66.888553081751	58
0	304	66.888553081751	59
0	305	68	58
0	308	70	57
0	314	70.858640592975	58
0	315	70.858640592975	59
0	319	71.510426902746	60
0	320	71.510426902746	61
0	321	72	60
0	327	72.613754419996	61
0	328	72.613754419996	62
0	329	74	61
0	335	74.704060378228	62
0	336	74.704060378228	63
0	340	75.039037789512	64
0	341	75.039037789512	65
0	342	76	64
0	345	78	63
0	351	78.183476798454	64
0	352	78.183476798454	65
0	356	78.512192429025	66
0	357	78.512192429025	67
0	358	80	66
0	364	80.117208639306	67
0	365	80.117208639306	68
0	369	80.310857947018	69
0	370	80.310857947018	70
0	374	80.324196616043	71
0	375	80.324196616043	72
0	376	82	71
0	382	82.178425721709	72
0	383	82.178425721709	73
0	387	82.806600850091	74
0	388	82.806600850091	75
0	392	83.387411671792	76
0	393	83.387411671792	77
0	394	84	76
0	400	85.194343842868	77
0	401	85.194343842868	78
0	402	86	77
0	408	86.236422773496	78
0	409	86.236422773496	79
0	413	86.732593428098	80
0	414	86.732593428098	81
0	415	88	80
0	421	88.177054286949	81
0	422	88.177054286949	82
0	426	89.099916204384	83
0	427	89.099916204384	84
0	428	90	83
0	434	90.641634643603	84
0	435	90.641634643603	85
0	436	92	84
0	442	93.078207279534	85
0	443	93.078207279534	86
0	447	93.80387875472	87
0	448	93.80387875472	88
0	449	94	87
0	452	96	86
0	458	96.029130366875	87
0	459	96.029130366875	88
0	460	98	87
0	466	98.148403663099	88
0	467	98.148403663099	89
0	468	100	88
0	474	100.605221473828	89
0	475	100.605221473828	90
0	476	102	89
0	482	103.83236928145	90
0	483	103.83236928145	91
0	484	104	90
0	487	106	89
0	493	106.106473995854	90
0	494	106.106473995854	91
0	498	107.550012296545	92
0	499	107.550012296545	93
0	503	107.587321798716	94
0	504	107.587321798716	95
0	505	108	94
0	508	110	93
0	514	111.602082670184	94
0	515	111.602082670184	95
0	519	111.680611300519	96
0	520	111.680611300519	97
0	521	112	96
0	524	114	95
0	530	114.384944928149	96
0	531	114.384944928149	97
0	532	116	96
0	538	116.11161742572	97
0	539	116.11161742572	98
0	540	118	97
0	546	119.416256854132	98
0	547	119.416256854132	99
0	548	120	98
0	554	121.186066772664	99
0	555	121.186066772664	100
0	556	122	99
0	562	122.097303064382	100
0	563	122.097303064382	101
0	567	123.496419730528	102
0	568	123.496419730528	103
0	569	124	102
0	572	126	101
0	578	126.253884748646	102
0	579	126.253884748646	103
0	580	128	102
0	586	128.567014011409	103
0	587	128.567014011409	104
0	588	130	103
0	594	130.537859200241	104
0	595	130.537859200241	105
0	599	130.844982513177	106
0	600	130.844982513177	107
0	601	132	106
0	607	132.494739665935	107
0	608	132.494739665935	108
0	609	134	107
0	615	135.221485248155	108
0	616	135.221485248155	109
0	617	136	108
0	623	137.201236520293	109
0	624	137.201236520293	110
0	625	138	109
0	631	139.705649322514	110
0	632	139.705649322514	111
0	633	140	110
0	639	140.918741612436	111
0	640	140.918741612436	112
0	641	142	111
0	647	142.461116644773	112
0	648	142.461116644773	113
0	649	144	112
0	655	145.216368514153	113
0	656	145.216368514153	114
0	657	146	113
0	663	146.301159882319	114
0	664	146.301159882319	115
0	668	147.023789119883	116
0	669	147.023789119883	117
0	673	147.727619296797	118
0	674	147.727619296797	119
0	675	148	118
0	678	150	117
0	684	150.390246258359	118
0	685	150.390246258359	119
0	689	150.797331394914	120
0	690	150.797331394914	121
0	691	152	120
0	697	152.716509269086	121
0	698	152.716509269086	122
0	699	154	121
0	705	154.339829254708	122
0	706	154.339829254708	123
0	710	155.011184199698	124
0	711	155.011184199698	125
0	712	156	124
0	718	157.197867117788	125
0	719	157.197867117788	126
0	720	158	125
0	726	158.296826448553	126
0	727	158.296826448553	127
0	728	160	126
0	734	160.106635075958	127
0	735	160.106635075958	128
0	736	162	127
0	742	163.425401945535	128
0	743	163.425401945535	129
0	744	164	128
0	750	164.556951215387	129
0	751	164.556951215387	130
0	755	164.576047270411	131
0	756	164.576047270411	132
0	760	165.726607224207	133
0	761	165.726607224207	134
0	762	166	133
0	768	166.992814946497	134
0	769	166.992814946497	135
0	770	168	134
0	776	168.656359539921	135
0	777	168.656359539921	136
0	781	169.840728443262	137
0	782	169.840728443262	138
0	783	170	137
0	789	170.97345897816	138
0	790	170.97345897816	139
0	794	171.268163640474	140
0	795	171.268163640474	141
0	799	171.822327246263	142
0	800	171.822327246263	143
0	801	172	142
0	807	172.315765008963	143
0	808	172.315765008963	144
0	812	173.43004348818	145
0	813	173.43004348818	146
0	814	174	145
0	820	174.964964661128	146
0	821	174.964964661128	147
0	822	176	146
0	828	176.502148327338	147
0	829	176.502148327338	148
0	833	177.716581108436	149
0	834	177.716581108436	150
0	835	178	149
0	838	180	148
0	844	180.817540241667	149
0	845	180.817540241667	150
0	849	180.832280677684	151
0	850	180.832280677684	152
0	851	182	151
0	857	183.100516656787	152
0	858	183.100516656787	153
0	862	183.452641958923	154
0	863	183.452641958923	155
0	864	184	154
0	867	186	153
0	873	187.325397314325	154
0	874	187.325397314325	155
0	878	187.345434584204	156
0	879	187.345434584204	157
0	880	188	156
0	883	190	155
0	889	190.181585621819	156
0	890	190.181585621819	157
0	891	192	156
0	897	192.523035117217	157
0	898	192.523035117217	158
0	899	194	157
0	905	194.507042238182	158
0	906	194.507042238182	159
0	907	196	158
0	913	197.195129306774	159
0	914	197.195129306774	160
0	918	197.630481805417	161
0	919	197.630481805417	162
0	920	198	161
0	923	200	160
0	929	200.505957833553	161
0	930	200.505957833553	162
0	931	202	161
0	937	202.298773146176	162
0	938	202.298773146176	163
0	939	204	162
0	945	204.375621402426	163
0	946	204.375621402426	164
0	947	206	163
0	953	207.405595691575	164
0	954	207.405595691575	165
0	958	207.989517992612	166
0	959	207.989517992612	167
0	960	208	166
0	963	210	165
0	969	211.719407383275	166
0	970	211.719407383275	167
0	971	212	166
0	977	212.957467996092	167
0	978	212.957467996092	168
0	982	213.731674936527	169
0	983	213.731674936527	170
0	984	214	169
0	990	214.787307506059	170
0	991	214.787307506059	171
0	992	216	170
0	998	216.279536567578	171
0	999	216.279536567578	172
0	1003	216.506017976717	173
0	1004	216.506017976717	174
0	1008	217.123541160516	175
0	1009	217.123541160516	176
0	1010	218	175
0	1016	218.042637383875	176
0	1017	218.042637383875	177
0	1021	218.764059031606	178
0	1022	218.764059031606	179
0	1023	220	178
0	1029	220.105596562676	179
0	1030	220.105596562676	180
0	1031	222	179
0	1037	222.070291606489	180
0	1038	222.070291606489	181
0	1039	224	180
0	1045	224.079978382759	181
0	1046	224.079978382759	182
0	1050	225.537200335379	183
0	1051	225.537200335379	184
0	1052	226	183
0	1058	226.343582339157	184
0	1059	226.343582339157	185
0	1060	228	184
0	1066	228.589311305338	185
0	1067	228.589311305338	186
0	1068	230	185
0	1074	230.242166554039	186
0	1075	230.242166554039	187
0	1079	230.912343670752	188
0	1080	230.912343670752	189
0	1081	232	188
0	1087	233.137814869177	189
0	1088	233.137814869177	190
0	1089	234	189
0	1095	234.759198076603	190
0	1096	234.759198076603	191
0	1100	235.416988850329	192
0	1101	235.416988850329	193
0	1102	236	192
0	1108	237.33838083797	193
0	1109	237.33838083797	194
0	1110	238	193
0	1116	239.988038109011	194
0	1117	239.988038109011	195
0	1118	240	194
0	1124	241.370806329995	195
0	1125	241.370806329995	196
0	1129	241.642747119387	197
0	1130	241.642747119387	198
0	1131	242	197
0	1137	243.501482286302	198
0	1138	243.501482286302	199
0	1139	244	198
0	1145	244.884585463605	199
0	1146	244.884585463605	200
0	1147	246	199
0	1153	246.176735831714	200
0	1154	246.176735831714	201
0	1158	246.318530563099	202
0	1159	246.318530563099	203
0	1160	248	202
0	1163	250	201
0	1169	250.187014659838	202
0	1170	250.187014659838	203
0	1174	250.484490876219	204
0	1175	250.484490876219	205
0	1176	252	204
0	1182	253.544167819606	205
0	1183	253.544167819606	206
0	1184	254	205
0	1190	255.66473965617	206
0	1191	255.66473965617	207
0	1192	256	206
0	1198	257.668102362536	207
0	1199	257.668102362536	208
0	1200	258	207
0	1206	258.225721239881	208
0	1207	258.225721239881	209
0	1211	258.287491610097	210
0	1212	258.287491610097	211
0	1216	259.616360894474	212
0	1217	259.616360894474	213
0	1218	260	212
0	1224	260.297760800895	213
0	1225	260.297760800895	214
0	1229	261.695256009699	215
0	1230	261.695256009699	216
0	1231	262	215
0	1237	262.973303783115	216
0	1238	262.973303783115	217
0	1239	264	216
0	1245	264.59268531136	217
0	1246	264.59268531136	218
0	1250	264.66930075709	219
0	1251	264.66930075709	220
0	1255	265.103985389291	221
0	1256	265.103985389291	222
0	1257	266	221
0	1263	267.432005863585	222
0	1264	267.432005863585	223
0	1268	267.808283869378	224
0	1269	267.808283869378	225
0	1270	268	224
0	1273	270	223
0	1279	270.829595748649	224
0	1280	270.829595748649	225
0	1284	271.65920266878	226
0	1285	271.65920266878	227
0	1286	272	226
0	1292	272.514442635268	227
0	1293	272.514442635268	228
0	1294	274	227
0	1300	275.788870286824	228
0	1301	275.788870286824	229
0	1302	276	228
0	1308	276.247894557774	229
0	1309	276.247894557774	230
0	1313	276.822651676223	231
0	1314	276.822651676223	232
0	1318	277.280290862187	233
0	1319	277.280290862187	234
0	1320	278	233
0	1326	279.545835045046	234
0	1327	279.545835045046	235
0	1328	280	234
0	1334	280.468629776178	235
0	1335	280.468629776178	236
0	1336	282	235
0	1342	283.967000897038	236
0	1343	283.967000897038	237
0	1344	284	236
0	1350	285.010517031326	237
0	1351	285.010517031326	238
0	1352	286	237
0	1358	287.586994051235	238
0	1359	287.586994051235	239
0	1360	288	238
0	1366	288.999567205549	239
0	1367	288.999567205549	240
0	1371	289.103618993068	241
0	1372	289.103618993068	242
0	1376	289.780686491952	243
0	1377	289.780686491952	244
0	1378	290	243
0	1384	290.562452275629	244
0	1385	290.562452275629	245
0	1386	292	244
0	1392	292.041807022241	245
0	1393	292.041807022241	246
0	1397	292.894640186665	247
0	1398	292.894640186665	248
0	1402	293.60084239031	249
0	1403	293.60084239031	250
0	1404	294	249
0	1410	295.573697804365	250
0	1411	295.573697804365	251
0	1412	296	250
0	1418	297.675906250716	251
0	1419	297.675906250716	252
0	1420	298	251
0	1426	298.389695221111	252
0	1427	298.389695221111	253
0	1428	300	252
0	1434	301.464237788444	253
0	1435	301.464237788444	254
0	1436	302	253
0	1442	302.815579482502	254
0	1443	302.815579482502	255
0	1447	303.120253189669	256
0	1448	303.120253189669	257
0	1449	304	256
0	1455	304.960658790879	257
0	1456	304.960658790879	258
0	1457	306	257
0	1463	306.441593970408	258
0	1464	306.441593970408	259
0	1468	307.642693725161	260
0	1469	307.642693725161	261
0	1470	308	260
0	1476	308.082805562639	261
0	1477	308.082805562639	262
0	1481	308.345661016942	263
0	1482	308.345661016942	264
0	1486	309.207450564675	265
0	1487	309.207450564675	266
0	1488	310	265
0	1494	310.819310700644	266
0	1495	310.819310700644	267
0	1496	312	266
0	1502	313.557669189009	267
0	1503	313.557669189009	268
0	1504	314	267
0	1507	316	266
0	1513	316.869949047893	267
0	1514	316.869949047893	268
0	1515	318	267
0	1521	318.419106966134	268
0	1522	318.419106966134	269
0	1523	320	268
0	1529	320.9014618948	269
0	1530	320.9014618948	270
0	1531	322	269
0	1537	323.925309103491	270
0	1538	323.925309103491	271
0	1539	324	270
0	1542	326	269
0	1548	326.357089084341	270
0	1549	326.357089084341	271
0	1550	328	270
0	1556	328.998077987756	271
0	1557	328.998077987756	272
0	1561	329.810674988325	273
0	1562	329.810674988325	274
0	1563	330	273
0	1569	330.465890693461	274
0	1570	330.465890693461	275
0	1574	331.96599376299	276
0	1575	331.96599376299	277
0	1576	332	276
0	1582	333.720273361707	277
0	1583	333.720273361707	278
0	1584	334	277
0	1590	334.006965536579	278
0	1591	334.006965536579	279
0	1595	334.293632695616	280
0	1596	334.293632695616	281
0	1600	335.455293548694	282
0	1601	335.455293548694	283
0	1602	336	282
0	1608	336.608816219735	283
0	1609	336.608816219735	284
0	1610	338	283
0	1616	338.426828332601	284
0	1617	338.426828332601	285
0	1618	340	284
0	1624	340.92282942335	285
0	1625	340.92282942335	286
0	1629	341.312994892627	287
0	1630	341.312994892627	288
0	1631	342	287
0	1637	343.431612554951	288
0	1638	343.431612554951	289
0	1639	344	288
0	1645	345.333785080525	289
0	1646	345.333785080525	290
0	1647	346	289
0	1653	347.163236124553	290
0	1654	347.163236124553	291
0	1658	347.988438203156	292
0	1659	347.988438203156	293
0	1660	348	292
0	1666	349.537972161809	293
0	1667	349.537972161809	294
0	1668	350	293
0	1674	350.756850609751	294
0	1675	350.756850609751	295
0	1679	351.896034571172	296
0	1680	351.896034571172	297
0	1681	352	296
0	1684	354	295
0	1690	355.388157577681	296
0	1691	355.388157577681	297
0	1695	355.573859396384	298
0	1696	355.573859396384	299
0	1697	356	298
0	1700	358	297
0	1706	358.524727580235	298
0	1707	358.524727580235	299
0	1708	360	298
0	1714	360.270066035618	299
0	1715	360.270066035618	300
0	1719	361.187010979753	301
0	1720	361.187010979753	302
0	1721	362	301
0	1727	363.093801860186	302
0	1728	363.093801860186	303
0	1729	364	302
0	1735	364.239319412728	303
0	1736	364.239319412728	304
0	1740	365.085075463067	305
0	1741	365.085075463067	306
0	1742	366	305
0	1748	366.836710429546	306
0	1749	366.836710429546	307
0	1750	368	306
0	1756	369.055765882106	307
0	1757	369.055765882106	308
0	1758	370	307
0	1764	370.330915057053	308
0	1765	370.330915057053	309
0	1769	370.604381797582	310
0	1770	370.604381797582	311
0	1774	371.911742833042	312
0	1775	371.911742833042	313
0	1776	372	312
0	1782	373.935489934229	313
0	1783	373.935489934229	314
0	1784	374	313
0	1787	376	312
0	1793	376.996804619205	313
0	1794	376.996804619205	314
0	1798	377.085282475986	315
0	1799	377.085282475986	316
0	1800	378	315
0	1806	378.525356545806	316
0	1807	378.525356545806	317
0	1811	378.914255113018	318
0	1812	378.914255113018	319
0	1813	380	318
0	1819	381.471784848954	319
0	1820	381.471784848954	320
0	1821	382	319
0	1827	383.552155250901	320
0	1828	383.552155250901	321
0	1832	383.613654540609	322
0	1833	383.613654540609	323
0	1834	384	322
0	1837	386	321
0	1843	387.43971072395	322
0	1844	387.43971072395	323
0	1845	388	322
0	1851	389.960638892972	323
0	1852	389.960638892972	324
0	1853	390	323
0	1859	391.440926364028	324
0	1860	391.440926364028	325
0	1861	392	324
0	1867	392.547537551315	325
0	1868	392.547537551315	326
0	1872	393.140724407051	327
0	1873	393.140724407051	328
0	1877	393.179178375147	329
0	1878	393.179178375147	330
0	1882	393.639286511219	331
0	1883	393.639286511219	332
0	1887	393.747550489814	333
0	1888	393.747550489814	334
0	1889	394	333
0	1892	396	332
0	1898	396.151089591359	333
0	1899	396.151089591359	334
0	1903	397.396428494855	335
0	1904	397.396428494855	336
0	1905	398	335
0	1911	398.018393144809	336
0	1912	398.018393144809	337
0	1916	399.361952357357	338
0	1917	399.361952357357	339
0	1921	399.377970978203	340
0	1922	399.377970978203	341
0	1923	400	340
0	1929	400.138612237712	341
0	1930	400.138612237712	342
0	1931	402	341
0	1937	403.134876853587	342
0	1938	403.134876853587	343
0	1939	404	342
0	1945	405.036039559766	343
0	1946	405.036039559766	344
0	1947	406	343
0	1953	406.693048209115	344
0	1954	406.693048209115	345
0	1955	408	344
0	1961	408.223090924352	345
0	1962	408.223090924352	346
0	1966	408.917449738828	347
0	1967	408.917449738828	348
0	1968	410	347
0	1974	410.687319416357	348
0	1975	410.687319416357	349
0	1976	412	348
0	1982	413.673158660418	349
0	1983	413.673158660418	350
0	1984	414	349
0	1990	414.389318030199	350
0	1991	414.389318030199	351
0	1992	416	350
0	1998	416.168977636737	351
0	1999	416.168977636737	352
0	2000	418	351
0	2006	418.069047181589	352
0	2007	418.069047181589	353
0	2011	419.826234150331	354
0	2012	419.826234150331	355
0	2013	420	354
0	2019	420.686079034225	355
0	2020	420.686079034225	356
0	2024	421.688524512799	357
0	2025	421.688524512799	358
0	2026	422	357
0	2029	424	356
0	2035	424.419363230825	357
0	2036	424.419363230825	358
0	2037	426	357
0	2043	426.391653148578	358
0	2044	426.391653148578	359
0	2048	426.873353554081	360
0	2049	426.873353554081	361
0	2050	428	360
0	2056	428.75058213618	361
0	2057	428.75058213618	362
0	2061	429.049626937957	363
0	2062	429.049626937957	364
0	2066	429.362941913654	365
0	2067	429.362941913654	366
0	2068	430	365
0	2074	430.546226606659	366
0	2075	430.546226606659	367
0	2079	431.054593089699	368
0	2080	431.054593089699	369
0	2084	431.249423683679	370
0	2085	431.249423683679	371
0	2086	432	370
0	2092	432.434799534834	371
0	2093	432.434799534834	372
0	2094	434	371
0	2100	435.23449593149	372
0	2101	435.23449593149	373
0	2105	435.592967107863	374
0	2106	435.592967107863	375
0	2107	436	374
0	2113	436.506182658301	375
0	2114	436.506182658301	376
0	2118	437.451204677005	377
0	2119	437.451204677005	378
0	2123	437.679539019686	379
0	2124	437.679539019686	380
0	2125	438	379
0	2131	438.067276261846	380
0	2132	438.067276261846	381
0	2136	438.408718629135	382
0	2137	438.408718629135	383
0	2138	440	382
0	2144	440.39831066867	383
0	2145	440.39831066867	384
0	2149	440.560272944335	385
0	2150	440.560272944335	386
0	2154	441.183788024024	387
0	2155	441.183788024024	388
0	2159	441.34938396733	389
0	2160	441.34938396733	390
0	2164	441.85018731163	391
0	2165	441.85018731163	392
0	2166	442	391
0	2172	443.258751905288	392
0	2173	443.258751905288	393
0	2174	444	392
0	2180	444.184026305505	393
0	2181	444.184026305505	394
0	2182	446	393
0	2185	448	392
0	2191	449.072989021811	393
0	2192	449.072989021811	394
0	2193	450	393
0	2199	451.680079268498	394
0	2200	451.680079268498	395
0	2204	451.836146538545	396
0	2205	451.836146538545	397
0	2206	452	396
0	2209	454	395
0	2215	454.831582316888	396
0	2216	454.831582316888	397
0	2220	455.184129332949	398
0	2221	455.184129332949	399
0	2225	455.930424329238	400
0	2226	455.930424329238	401
0	2227	456	400
0	2233	456.790584816735	401
0	2234	456.790584816735	402
0	2235	458	401
0	2241	458.430636484562	402
0	2242	458.430636484562	403
0	2246	459.067515432159	404
0	2247	459.067515432159	405
0	2251	459.781185621925	406
0	2252	459.781185621925	407
0	2253	460	406
0	2259	460.977175077697	407
0	2260	460.977175077697	408
0	2261	462	407
0	2267	462.622704775684	408
0	2268	462.622704775684	409
0	2269	464	408
0	2275	464.819834510028	409
0	2276	464.819834510028	410
0	2280	464.983836233538	411
0	2281	464.983836233538	412
0	2282	466	411
0	2288	466.101593688903	412
0	2289	466.101593688903	413
0	2290	468	412
0	2296	468.423659224766	413
0	2297	468.423659224766	414
0	2298	470	413
0	2304	471.420368006461	414
0	2305	471.420368006461	415
0	2306	472	414
0	2312	473.039884356308	415
0	2313	473.039884356308	416
0	2317	473.750696003314	417
0	2318	473.750696003314	418
0	2319	474	417
0	2325	474.243363920623	418
0	2326	474.243363920623	419
0	2330	474.261254476096	420
0	2331	474.261254476096	421
0	2332	476	420
0	2338	476.156548957962	421
0	2339	476.156548957962	422
0	2343	477.314634295111	423
0	2344	477.314634295111	424
0	2348	477.394748621747	425
0	2349	477.394748621747	426
0	2350	478	425
0	2356	478.788745893263	426
0	2357	478.788745893263	427
0	2358	480	426
0	2364	480.242092115607	427
0	2365	480.242092115607	428
0	2366	482	427
0	2372	482.268264039582	428
0	2373	482.268264039582	429
0	2374	484	428
0	2380	484.14404675949	429
0	2381	484.14404675949	430
0	2385	484.930070232772	431
0	2386	484.930070232772	432
0	2390	485.0242284201	433
0	2391	485.0242284201	434
0	2392	486	433
0	2398	486.839440878506	434
0	2399	486.839440878506	435
0	2400	488	434
0	2406	488.487976648248	435
0	2407	488.487976648248	436
0	2411	489.004953310256	437
0	2412	489.004953310256	438
0	2413	490	437
0	2419	490.897850750755	438
0	2420	490.897850750755	439
0	2421	492	438
0	2427	493.095682091151	439
0	2428	493.095682091151	440
0	2429	494	439
0	2435	494.966696405355	440
0	2436	494.966696405355	441
0	2440	495.921552521571	442
0	2441	495.921552521571	443
0	2442	496	442
0	2448	497.107348909085	443
0	2449	497.107348909085	444
0	2450	498	443
0	2456	498.198331900121	444
0	2457	498.198331900121	445
0	2458	500	444
0	2464	500.517062459194	445
0	2465	500.517062459194	446
0	2469	501.012335648946	447
0	2470	501.012335648946	448
0	2474	501.728982092492	449
0	2475	501.728982092492	450
0	2476	502	449
0	2482	503.519803392126	450
0	2483	503.519803392126	451
0	2484	504	450
0	2490	504.414060800277	451
0	2491	504.414060800277	452
0	2492	506	451
0	2498	506.247666765007	452
0	2499	506.247666765007	453
0	2503	506.668703563016	454
0	2504	506.668703563016	455
0	2508	506.867189676075	456
0	2509	506.867189676075	457
0	2510	508	456
0	2516	508.750972943818	457
0	2517	508.750972943818	458
0	2518	510	457
0	2524	510.028909113602	458
0	2525	510.028909113602	459
0	2529	511.595372766522	460
0	2530	511.595372766522	461
0	2531	512	460
0	2537	512.158264866807	461
0	2538	512.158264866807	462
0	2539	514	461
0	2545	514.03386929105	462
0	2546	514.03386929105	463
0	2550	514.259375545078	464
0	2551	514.259375545078	465
0	2552	516	464
0	2558	517.423953090164	465
0	2559	517.423953090164	466
0	2560	518	465
0	2566	519.977600548593	466
0	2567	519.977600548593	467
0	2568	520	466
0	2574	521.250054336363	467
0	2575	521.250054336363	468
0	2576	522	467
0	2582	522.229750896292	468
0	2583	522.229750896292	469
0	2587	523.389062577874	470
0	2588	523.389062577874	471
0	2589	524	470
0	2595	524.976106982792	471
0	2596	524.976106982792	472
0	2600	525.392141566103	473
0	2601	525.392141566103	474
0	2602	526	473
0	2608	526.08970981675	474
0	2609	526.08970981675	475
0	2613	527.905066639691	476
0	2614	527.905066639691	477
0	2615	528	476
0	2621	528.45767939185	477
0	2622	528.45767939185	478
0	2626	529.304634980659	479
0	2627	529.304634980659	480
0	2628	530	479
0	2634	530.478726029871	480
0	2635	530.478726029871	481
0	2639	531.645687084464	482
0	2640	531.645687084464	483
0	2641	532	482
0	2647	532.264825519577	483
0	2648	532.264825519577	484
0	2652	533.217589193474	485
0	2653	533.217589193474	486
0	2657	533.749614783985	487
0	2658	533.749614783985	488
0	2659	534	487
0	2665	535.670904705605	488
0	2666	535.670904705605	489
0	2667	536	488
0	2673	536.544380564747	489
0	2674	536.544380564747	490
0	2678	537.418318441998	491
0	2679	537.418318441998	492
0	2680	538	491
0	2686	538.926718117991	492
0	2687	538.926718117991	493
0	2691	539.945467977295	494
0	2692	539.945467977295	495
0	2693	540	494
0	2699	540.06564239616	495
0	2700	540.06564239616	496
0	2701	542	495
0	2707	543.961557366807	496
0	2708	543.961557366807	497
0	2709	544	496
0	2715	545.213223401413	497
0	2716	545.213223401413	498
0	2717	546	497
0	2723	547.278743766018	498
0	2724	547.278743766018	499
0	2725	548	498
0	2731	549.949060341836	499
0	2732	549.949060341836	500
0	2733	550	499
0	2736	552	498
0	2742	552.006228220302	499
0	2743	552.006228220302	500
0	2744	554	499
0	2750	555.111877271194	500
0	2751	555.111877271194	501
0	2755	555.833059183121	502
0	2756	555.833059183121	503
0	2757	556	502
0	2763	556.750941538554	503
0	2764	556.750941538554	504
0	2768	557.6241881753	505
0	2769	557.6241881753	506
0	2770	558	505
0	2776	559.47097373108	506
0	2777	559.47097373108	507
0	2781	559.559702904325	508
0	2782	559.559702904325	509
0	2783	560	508
0	2786	562	507
0	2792	563.009696970681	508
0	2793	563.009696970681	509
0	2794	564	508
0	2800	564.764312431698	509
0	2801	564.764312431698	510
0	2805	565.205362266385	511
0	2806	565.205362266385	512
0	2810	565.829490583326	513
0	2811	565.829490583326	514
0	2812	566	513
0	2818	566.787137786859	514
0	2819	566.787137786859	515
0	2820	568	514
0	2826	569.868108318539	515
0	2827	569.868108318539	516
0	2828	570	515
0	2834	571.772726783601	516
0	2835	571.772726783601	517
0	2836	572	516
0	2842	572.399230670612	517
0	2843	572.399230670612	518
0	2847	573.990511729716	519
0	2848	573.990511729716	520
0	2849	574	519
0	2855	574.168638350537	520
0	2856	574.168638350537	521
0	2860	574.360337770028	522
0	2861	574.360337770028	523
0	2865	574.393136066601	524
0	2866	574.393136066601	525
0	2870	575.422582853338	526
0	2871	575.422582853338	527
0	2872	576	526
0	2875	578	525
0	2881	578.176112190688	526
0	2882	578.176112190688	527
0	2886	579.807469049477	528
0	2887	579.807469049477	529
0	2888	580	528
0	2894	581.929790449473	529
0	2895	581.929790449473	530
0	2896	582	529
0	2902	583.476569809491	530
0	2903	583.476569809491	531
0	2907	583.821600521399	532
0	2908	583.821600521399	533
0	2909	584	532
0	2912	586	531
0	2918	586.629878944939	532
0	2919	586.629878944939	533
0	2923	586.732014459021	534
0	2924	586.732014459021	535
0	2925	588	534
0	2931	589.722306826553	535
0	2932	589.722306826553	536
0	2933	590	535
0	2939	591.63542788998	536
0	2940	591.63542788998	537
0	2941	592	536
0	2947	593.950843553489	537
0	2948	593.950843553489	538
0	2949	594	537
0	2955	595.247442717954	538
0	2956	595.247442717954	539
0	2957	596	538
0	2960	598	537
0	2966	598.060985580646	538
0	2967	598.060985580646	539
0	2968	600	538
0	2974	600.260589639893	539
0	2975	600.260589639893	540
0	2979	601.152437890278	541
0	2980	601.152437890278	542
0	2981	602	541
0	2987	602.859246383236	542
0	2988	602.859246383236	543
0	2992	602.956066732405	544
0	2993	602.956066732405	545
0	2994	604	544
0	3000	605.002559839916	545
0	3001	605.002559839916	546
0	3002	606	545
0	3005	608	544
0	3011	608.573050398316	545
0	3012	608.573050398316	546
0	3016	609.385205571235	547
0	3017	609.385205571235	548
0	3018	610	547
0	3024	611.73216224032	548
0	3025	611.73216224032	549
0	3026	612	548
0	3032	613.627677799974	549
0	3033	613.627677799974	550
0	3034	614	549
0	3040	614.267224043729	550
0	3041	614.267224043729	551
0	3045	614.315173041206	552
0	3046	614.315173041206	553
0	3050	615.783576721633	554
0	3051	615.783576721633	555
0	3052	616	554
0	3058	617.388273497468	555
0	3059	617.388273497468	556
0	3060	618	555
0	3066	618.522568803694	556
0	3067	618.522568803694	557
0	3068	620	556
0	3074	620.439981400077	557
0	3075	620.439981400077	558
0	3076	622	557
0	3079	624	556
0	3085	624.304746705602	557
0	3086	624.304746705602	558
0	3087	626	557
0	3093	627.012587443393	558
0	3094	627.012587443393	559
0	3095	628	558
0	3101	628.572653974141	559
0	3102	628.572653974141	560
0	3106	628.797244277427	561
0	3107	628.797244277427	562
0	3111	629.212608994324	563
0	3112	629.212608994324	564
0	3116	629.997947502553	565
0	3117	629.997947502553	566
0	3118	630	565
0	3124	631.620482344709	566
0	3125	631.620482344709	567
0	3129	631.630092971399	568
0	3130	631.630092971399	569
0	3131	632	568
0	3137	632.701969664954	569
0	3138	632.701969664954	570
0	3142	633.593432552568	571
0	3143	633.593432552568	572
0	3144	634	571
0	3147	636	570
0	3153	636.035897986195	571
0	3154	636.035897986195	572
0	3155	638	571
0	3161	639.177564215882	572
0	3162	639.177564215882	573
0	3163	640	572