version 3
run k_MM1_rand-18-20221127-16:03:21-5740
attr configname k_MM1_rand
attr datetime 20221127-16:03:21
attr datetimef 20221127-160321
attr experiment k_MM1_rand
attr inifile omnetpp.ini
attr iterationvars "$time=2.0, $num=1, $0=47853, $1=24674, $2=96433"
attr iterationvarsd time=2.0/num=1/47853/24674/96433
attr iterationvarsf time=2.0,num=1,47853,24674,96433-
attr measurement "$time=2.0, $num=1, $0=47853, $1=24674, $2=96433"
attr network randkMM1
attr processid 5740
attr repetition 2
attr replication #2
attr resultdir results
attr runnumber 18
attr seedset 18
itervar num 1
itervar time 2.0
config description "MM1 module k-times random"
config network randkMM1
config **.source.interArrivalTime "truncnormal(0.5s, 1.5s)"
config **.serviceTime 2.0s
config **.c 1
config **.capacity 10000
config record-eventlog false
config **.scalar-recording true
config **.vector-recording true
config repeat 4
config seed-1-mt 47853
config seed-2-mt 24674
config seed-3-mt 96433
config output-vector-file k_MM1_rand-1-2.0-results/2.vec
config output-scalar-file k_MM1_rand-1-2.0-results/2.sca

vector 0 randkMM1.mm1[0] queueLength:vector ETV
attr interpolationmode none
attr recordingmode vector
attr title "queue length"
vector 1 randkMM1.mm1[0] util:vector ETV
attr interpolationmode none
attr recordingmode vector
attr title resources
0	5	10	1
0	6	12	0
0	12	12.431300175405	1
0	13	12.431300175405	2
0	17	13.036787424066	3
0	18	13.036787424066	4
0	19	14	3
0	25	14.333943143278	4
0	26	14.333943143278	5
0	30	15.670491634198	6
0	31	15.670491634198	7
0	32	16	6
0	35	18	5
0	41	18.662120411578	6
0	42	18.662120411578	7
0	46	19.839484393087	8
0	47	19.839484393087	9
0	48	20	8
0	54	20.695827217268	9
0	55	20.695827217268	10
0	59	21.12192948638	11
0	60	21.12192948638	12
0	64	21.141233188077	13
0	65	21.141233188077	14
0	66	22	13
0	72	22.004078295137	14
0	73	22.004078295137	15
0	74	24	14
0	80	24.434278575408	15
0	81	24.434278575408	16
0	82	26	15
0	88	27.390360708555	16
0	89	27.390360708555	17
0	93	27.668540596415	18
0	94	27.668540596415	19
0	95	28	18
0	101	28.07667540575	19
0	102	28.07667540575	20
0	103	30	19
0	109	30.255054005565	20
0	110	30.255054005565	21
0	114	31.572255645786	22
0	115	31.572255645786	23
0	116	32	22
0	122	32.272924871625	23
0	123	32.272924871625	24
0	127	32.400726945278	25
0	128	32.400726945278	26
0	132	33.62292498763	27
0	133	33.62292498763	28
0	134	34	27
0	140	34.419447637096	28
0	141	34.419447637096	29
0	142	36	28
0	148	37.153257227895	29
0	149	37.153257227895	30
0	150	38	29
0	156	38.272125179353	30
0	157	38.272125179353	31
0	161	38.749535655569	32
0	162	38.749535655569	33
0	166	39.374354945807	34
0	167	39.374354945807	35
0	168	40	34
0	174	41.428867118628	35
0	175	41.428867118628	36
0	176	42	35
0	182	42.518534189253	36
0	183	42.518534189253	37
0	187	42.769956561644	38
0	188	42.769956561644	39
0	192	43.292500947121	40
0	193	43.292500947121	41
0	194	44	40
0	200	44.78619747686	41
0	201	44.78619747686	42
0	205	45.819807039035	43
0	206	45.819807039035	44
0	207	46	43
0	213	46.049063154786	44
0	214	46.049063154786	45
0	218	47.091584628992	46
0	219	47.091584628992	47
0	220	48	46
0	226	48.615461232729	47
0	227	48.615461232729	48
0	228	50	47
0	231	52	46
0	237	53.328807013434	47
0	238	53.328807013434	48
0	242	53.833536842071	49
0	243	53.833536842071	50
0	244	54	49
0	250	54.631660112134	50
0	251	54.631660112134	51
0	255	55.120312379898	52
0	256	55.120312379898	53
0	257	56	52
0	260	58	51
0	266	58.552091248984	52
0	267	58.552091248984	53
0	271	59.175358096882	54
0	272	59.175358096882	55
0	273	60	54
0	279	61.620607509172	55
0	280	61.620607509172	56
0	281	62	55
0	287	62.650909152683	56
0	288	62.650909152683	57
0	292	62.736141055686	58
0	293	62.736141055686	59
0	294	64	58
0	300	65.512185813417	59
0	301	65.512185813417	60
0	305	65.610941106927	61
0	306	65.610941106927	62
0	307	66	61
0	313	66.756936310834	62
0	314	66.756936310834	63
0	318	67.879696459343	64
0	319	67.879696459343	65
0	320	68	64
0	326	68.705284580083	65
0	327	68.705284580083	66
0	331	69.242571603454	67
0	332	69.242571603454	68
0	333	70	67
0	336	72	66
0	342	72.369709607081	67
0	343	72.369709607081	68
0	344	74	67
0	350	75.530540486113	68
0	351	75.530540486113	69
0	355	75.955944720069	70
0	356	75.955944720069	71
0	357	76	70
0	363	76.066582117262	71
0	364	76.066582117262	72
0	368	76.071264345381	73
0	369	76.071264345381	74
0	373	77.317296250236	75
0	374	77.317296250236	76
0	375	78	75
0	381	78.514185874426	76
0	382	78.514185874426	77
0	386	79.43476959485	78
0	387	79.43476959485	79
0	391	79.559836253583	80
0	392	79.559836253583	81
0	393	80	80
0	399	80.628922197037	81
0	400	80.628922197037	82
0	401	82	81
0	407	83.71414511968	82
0	408	83.71414511968	83
0	409	84	82
0	415	84.417010095228	83
0	416	84.417010095228	84
0	417	86	83
0	423	86.959878411365	84
0	424	86.959878411365	85
0	428	87.247035551145	86
0	429	87.247035551145	87
0	430	88	86
0	436	89.410553435308	87
0	437	89.410553435308	88
0	438	90	87
0	444	90.084213197491	88
0	445	90.084213197491	89
0	449	91.371591850968	90
0	450	91.371591850968	91
0	451	92	90
0	457	92.529228969063	91
0	458	92.529228969063	92
0	459	94	91
0	465	94.918673211761	92
0	466	94.918673211761	93
0	470	95.914664707814	94
0	471	95.914664707814	95
0	472	96	94
0	475	98	93
0	481	98.499901526535	94
0	482	98.499901526535	95
0	486	98.891548096179	96
0	487	98.891548096179	97
0	491	99.169049400645	98
0	492	99.169049400645	99
0	496	99.865741298496	100
0	497	99.865741298496	101
0	498	100	100
0	504	101.157672574175	101
0	505	101.157672574175	102
0	506	102	101
0	512	103.042912320261	102
0	513	103.042912320261	103
0	514	104	102
0	520	105.165415869429	103
0	521	105.165415869429	104
0	525	105.467042748738	105
0	526	105.467042748738	106
0	527	106	105
0	530	108	104
0	536	108.847411178732	105
0	537	108.847411178732	106
0	541	109.546081916916	107
0	542	109.546081916916	108
0	546	109.967794753689	109
0	547	109.967794753689	110
0	548	110	109
0	554	110.414963089595	110
0	555	110.414963089595	111
0	559	111.026866413684	112
0	560	111.026866413684	113
0	564	111.685213675297	114
0	565	111.685213675297	115
0	566	112	114
0	572	113.261328792284	115
0	573	113.261328792284	116
0	574	114	115
0	580	115.658051993241	116
0	581	115.658051993241	117
0	582	116	116
0	588	116.816793041166	117
0	589	116.816793041166	118
0	590	118	117
0	596	118.444945976905	118
0	597	118.444945976905	119
0	601	118.561545549564	120
0	602	118.561545549564	121
0	603	120	120
0	609	120.11970720459	121
0	610	120.11970720459	122
0	614	120.722397009334	123
0	615	120.722397009334	124
0	616	122	123
0	622	123.384992240879	124
0	623	123.384992240879	125
0	627	123.915866302553	126
0	628	123.915866302553	127
0	629	124	126
0	635	124.765637752777	127
0	636	124.765637752777	128
0	637	126	127
0	643	126.113015068695	128
0	644	126.113015068695	129
0	645	128	128
0	651	129.608838240816	129
0	652	129.608838240816	130
0	653	130	129
0	659	131.793741357422	130
0	660	131.793741357422	131
0	661	132	130
0	667	132.290325765462	131
0	668	132.290325765462	132
0	669	134	131
0	675	135.323854591079	132
0	676	135.323854591079	133
0	680	135.594025095714	134
0	681	135.594025095714	135
0	682	136	134
0	688	137.066264015944	135
0	689	137.066264015944	136
0	693	137.718569858866	137
0	694	137.718569858866	138
0	695	138	137
0	701	138.362246257906	138
0	702	138.362246257906	139
0	706	138.416182674766	140
0	707	138.416182674766	141
0	708	140	140
0	714	141.14738417857	141
0	715	141.14738417857	142
0	716	142	141
0	719	144	140
0	725	144.759211969181	141
0	726	144.759211969181	142
0	727	146	141
0	733	147.901120553843	142
0	734	147.901120553843	143
0	735	148	142
0	738	150	141
0	744	151.121318065349	142
0	745	151.121318065349	143
0	746	152	142
0	752	153.193263500039	143
0	753	153.193263500039	144
0	754	154	143
0	760	154.855122285139	144
0	761	154.855122285139	145
0	762	156	144
0	768	156.936207081626	145
0	769	156.936207081626	146
0	773	157.15798268266	147
0	774	157.15798268266	148
0	778	157.646197770171	149
0	779	157.646197770171	150
0	780	158	149
0	783	160	148
0	789	160.348109186091	149
0	790	160.348109186091	150
0	794	160.708556456696	151
0	795	160.708556456696	152
0	799	161.0693025452	153
0	800	161.0693025452	154
0	801	162	153
0	807	163.856171032949	154
0	808	163.856171032949	155
0	809	164	154
0	812	166	153
0	818	166.008391885613	154
0	819	166.008391885613	155
0	823	167.411760092779	156
0	824	167.411760092779	157
0	828	167.484820670764	158
0	829	167.484820670764	159
0	830	168	158
0	836	169.615566578112	159
0	837	169.615566578112	160
0	838	170	159
0	841	172	158
0	847	173.431102902362	159
0	848	173.431102902362	160
0	852	173.656218547308	161
0	853	173.656218547308	162
0	854	174	161
0	860	175.298462153346	162
0	861	175.298462153346	163
0	865	175.887804614604	164
0	866	175.887804614604	165
0	867	176	164
0	873	177.477485507399	165
0	874	177.477485507399	166
0	878	177.942499554818	167
0	879	177.942499554818	168
0	880	178	167
0	883	180	166
0	889	180.161469714809	167
0	890	180.161469714809	168
0	891	182	167
0	897	183.161391788979	168
0	898	183.161391788979	169
0	902	183.742709499455	170
0	903	183.742709499455	171
0	904	184	170
0	907	186	169
0	913	187.43728219188	170
0	914	187.43728219188	171
0	915	188	170
0	921	188.182463339258	171
0	922	188.182463339258	172
0	926	189.30162703535	173
0	927	189.30162703535	174
0	928	190	173
0	934	190.412072424335	174
0	935	190.412072424335	175
0	939	191.584685863485	176
0	940	191.584685863485	177
0	941	192	176
0	944	194	175
0	950	195.666370196734	176
0	951	195.666370196734	177
0	952	196	176
0	958	196.014947845227	177
0	959	196.014947845227	178
0	963	197.811434517106	179
0	964	197.811434517106	180
0	965	198	179
0	971	198.300693811768	180
0	972	198.300693811768	181
0	973	200	180
0	979	201.351017898752	181
0	980	201.351017898752	182
0	981	202	181
0	987	203.708062828665	182
0	988	203.708062828665	183
0	992	203.893578102439	184
0	993	203.893578102439	185
0	994	204	184
0	1000	204.648837084935	185
0	1001	204.648837084935	186
0	1002	206	185
0	1008	207.504954912152	186
0	1009	207.504954912152	187
0	1010	208	186
0	1016	208.304563003579	187
0	1017	208.304563003579	188
0	1021	209.506611680782	189
0	1022	209.506611680782	190
0	1023	210	189
0	1029	210.995433037591	190
0	1030	210.995433037591	191
0	1034	211.834816092257	192
0	1035	211.834816092257	193
0	1036	212	192
0	1042	212.102631141617	193
0	1043	212.102631141617	194
0	1044	214	193
0	1050	214.030359672379	194
0	1051	214.030359672379	195
0	1055	214.746806998589	196
0	1056	214.746806998589	197
0	1060	215.060294061824	198
0	1061	215.060294061824	199
0	1062	216	198
0	1068	216.38830489744	199
0	1069	216.38830489744	200
0	1070	218	199
0	1076	219.008930790179	200
0	1077	219.008930790179	201
0	1078	220	200
0	1084	221.597495342679	201
0	1085	221.597495342679	202
0	1089	221.669118179415	203
0	1090	221.669118179415	204
0	1091	222	203
0	1097	222.506869032965	204
0	1098	222.506869032965	205
0	1102	223.225565248093	206
0	1103	223.225565248093	207
0	1104	224	206
0	1110	224.246417801076	207
0	1111	224.246417801076	208
0	1115	224.443813080928	209
0	1116	224.443813080928	210
0	1120	225.39809351252	211
0	1121	225.39809351252	212
0	1122	226	211
0	1128	227.430176463659	212
0	1129	227.430176463659	213
0	1130	228	212
0	1136	228.49537761986	213
0	1137	228.49537761986	214
0	1138	230	213
0	1144	230.313860556419	214
0	1145	230.313860556419	215
0	1149	231.144322449785	216
0	1150	231.144322449785	217
0	1154	231.976497010226	218
0	1155	231.976497010226	219
0	1156	232	218
0	1162	232.325907237718	219
0	1163	232.325907237718	220
0	1167	233.677619467186	221
0	1168	233.677619467186	222
0	1169	234	221
0	1175	235.173650389834	222
0	1176	235.173650389834	223
0	1180	235.19244282469	224
0	1181	235.19244282469	225
0	1182	236	224
0	1188	236.451302265091	225
0	1189	236.451302265091	226
0	1190	238	225
0	1196	239.651332741255	226
0	1197	239.651332741255	227
0	1198	240	226
0	1204	241.985244402997	227
0	1205	241.985244402997	228
0	1206	242	227
0	1212	242.318532459012	228
0	1213	242.318532459012	229
0	1217	243.769158555452	230
0	1218	243.769158555452	231
0	1219	244	230
0	1225	244.723610695893	231
0	1226	244.723610695893	232
0	1227	246	231
0	1233	246.46490346332	232
0	1234	246.46490346332	233
0	1238	246.860719494333	234
0	1239	246.860719494333	235
0	1240	248	234
0	1246	248.363105783269	235
0	1247	248.363105783269	236
0	1251	249.567835283877	237
0	1252	249.567835283877	238
0	1253	250	237
0	1259	251.973192105283	238
0	1260	251.973192105283	239
0	1261	252	238
0	1264	254	237
0	1270	255.473806485365	238
0	1271	255.473806485365	239
0	1275	255.519267962991	240
0	1276	255.519267962991	241
0	1277	256	240
0	1283	257.11288292142	241
0	1284	257.11288292142	242
0	1288	257.460508975915	243
0	1289	257.460508975915	244
0	1290	258	243
0	1296	259.944345883203	244
0	1297	259.944345883203	245
0	1298	260	244
0	1304	260.596601430493	245
0	1305	260.596601430493	246
0	1309	260.830154351857	247
0	1310	260.830154351857	248
0	1311	262	247
0	1317	262.871302926866	248
0	1318	262.871302926866	249
0	1322	262.995235659423	250
0	1323	262.995235659423	251
0	1324	264	250
0	1330	264.258453379074	251
0	1331	264.258453379074	252
0	1332	266	251
0	1338	267.514733357563	252
0	1339	267.514733357563	253
0	1340	268	252
0	1346	268.007982436206	253
0	1347	268.007982436206	254
0	1351	269.748733910771	255
0	1352	269.748733910771	256
0	1353	270	255
0	1359	270.460227556882	256
0	1360	270.460227556882	257
0	1364	271.303065229432	258
0	1365	271.303065229432	259
0	1369	271.963891984397	260
0	1370	271.963891984397	261
0	1371	272	260
0	1374	274	259
0	1380	274.245589728863	260
0	1381	274.245589728863	261
0	1385	274.359177557736	262
0	1386	274.359177557736	263
0	1387	276	262
0	1393	276.374284557216	263
0	1394	276.374284557216	264
0	1395	278	263
0	1401	278.863076966346	264
0	1402	278.863076966346	265
0	1403	280	264
0	1409	280.039963652775	265
0	1410	280.039963652775	266
0	1414	281.888882992272	267
0	1415	281.888882992272	268
0	1416	282	267
0	1422	282.09263728197	268
0	1423	282.09263728197	269
0	1427	282.244328998046	270
0	1428	282.244328998046	271
0	1432	282.981637039081	272
0	1433	282.981637039081	273
0	1437	283.216204505805	274
0	1438	283.216204505805	275
0	1442	283.559530900734	276
0	1443	283.559530900734	277
0	1444	284	276
0	1450	285.210464062387	277
0	1451	285.210464062387	278
0	1455	285.903913853007	279
0	1456	285.903913853007	280
0	1460	285.936980269069	281
0	1461	285.936980269069	282
0	1462	286	281
0	1468	286.048947246414	282
0	1469	286.048947246414	283
0	1473	286.532083277787	284
0	1474	286.532083277787	285
0	1475	288	284
0	1481	288.862419008881	285
0	1482	288.862419008881	286
0	1483	290	285
0	1486	292	284
0	1492	292.78488997546	285
0	1493	292.78488997546	286
0	1497	292.873423708252	287
0	1498	292.873423708252	288
0	1502	293.364741556185	289
0	1503	293.364741556185	290
0	1504	294	289
0	1510	294.383113982594	290
0	1511	294.383113982594	291
0	1515	295.428146524882	292
0	1516	295.428146524882	293
0	1517	296	292
0	1523	296.618731264684	293
0	1524	296.618731264684	294
0	1528	297.030076643278	295
0	1529	297.030076643278	296
0	1530	298	295
0	1536	299.076049962581	296
0	1537	299.076049962581	297
0	1541	299.488841069813	298
0	1542	299.488841069813	299
0	1546	299.574088825667	300
0	1547	299.574088825667	301
0	1548	300	300
0	1551	302	299
0	1557	302.981161129628	300
0	1558	302.981161129628	301
0	1559	304	300
0	1562	306	299
0	1565	308	298
0	1571	308.972376887725	299
0	1572	308.972376887725	300
0	1573	310	299
0	1579	310.388587264509	300
0	1580	310.388587264509	301
0	1581	312	300
0	1587	312.011950818172	301
0	1588	312.011950818172	302
0	1592	312.375326152407	303
0	1593	312.375326152407	304
0	1597	313.160477521726	305
0	1598	313.160477521726	306
0	1602	313.549780797404	307
0	1603	313.549780797404	308
0	1607	313.621218373959	309
0	1608	313.621218373959	310
0	1609	314	309
0	1615	314.878014640319	310
0	1616	314.878014640319	311
0	1620	315.600910263809	312
0	1621	315.600910263809	313
0	1622	316	312
0	1628	316.865781546517	313
0	1629	316.865781546517	314
0	1633	317.905532259253	315
0	1634	317.905532259253	316
0	1635	318	315
0	1641	318.158820368606	316
0	1642	318.158820368606	317
0	1643	320	316
0	1649	321.015819633889	317
0	1650	321.015819633889	318
0	1654	321.322759419117	319
0	1655	321.322759419117	320
0	1656	322	319
0	1662	322.53395576249	320
0	1663	322.53395576249	321
0	1664	324	320
0	1670	325.115999881617	321
0	1671	325.115999881617	322
0	1672	326	321
0	1678	326.65129721884	322
0	1679	326.65129721884	323
0	1680	328	322
0	1686	328.063395158736	323
0	1687	328.063395158736	324
0	1691	328.076041457348	325
0	1692	328.076041457348	326
0	1696	329.04007575293	327
0	1697	329.04007575293	328
0	1701	329.933771634574	329
0	1702	329.933771634574	330
0	1703	330	329
0	1709	330.479650550935	330
0	1710	330.479650550935	331
0	1711	332	330
0	1717	332.234188951392	331
0	1718	332.234188951392	332
0	1722	333.054820917723	333
0	1723	333.054820917723	334
0	1724	334	333
0	1730	334.592221251654	334
0	1731	334.592221251654	335
0	1732	336	334
0	1738	337.223913628385	335
0	1739	337.223913628385	336
0	1743	337.829569485486	337
0	1744	337.829569485486	338
0	1745	338	337
0	1751	338.779831502016	338
0	1752	338.779831502016	339
0	1756	339.79217900664	340
0	1757	339.79217900664	341
0	1758	340	340
0	1764	340.084320525532	341
0	1765	340.084320525532	342
0	1769	340.211877258138	343
0	1770	340.211877258138	344
0	1774	340.480771960335	345
0	1775	340.480771960335	346
0	1779	341.006525041694	347
0	1780	341.006525041694	348
0	1781	342	347
0	1787	343.391600389208	348
0	1788	343.391600389208	349
0	1792	343.493416973504	350
0	1793	343.493416973504	351
0	1794	344	350
0	1800	344.457639446365	351
0	1801	344.457639446365	352
0	1805	345.089305167446	353
0	1806	345.089305167446	354
0	1807	346	353
0	1813	346.098024562461	354
0	1814	346.098024562461	355
0	1818	347.055105313494	356
0	1819	347.055105313494	357
0	1820	348	356
0	1826	348.226066431265	357
0	1827	348.226066431265	358
0	1828	350	357
0	1834	351.551984390331	358
0	1835	351.551984390331	359
0	1836	352	358
0	1842	353.080689087463	359
0	1843	353.080689087463	360
0	1847	353.523641465521	361
0	1848	353.523641465521	362
0	1849	354	361
0	1855	355.093910668906	362
0	1856	355.093910668906	363
0	1857	356	362
0	1863	356.168771673501	363
0	1864	356.168771673501	364
0	1868	357.322159197406	365
0	1869	357.322159197406	366
0	1870	358	365
0	1876	358.734343915014	366
0	1877	358.734343915014	367
0	1878	360	366
0	1884	361.504251358895	367
0	1885	361.504251358895	368
0	1886	362	367
0	1892	362.052287812469	368
0	1893	362.052287812469	369
0	1897	362.557037369579	370
0	1898	362.557037369579	371
0	1902	363.568817820053	372
0	1903	363.568817820053	373
0	1904	364	372
0	1910	365.169697607527	373
0	1911	365.169697607527	374
0	1912	366	373
0	1918	366.56852137344	374
0	1919	366.56852137344	375
0	1923	366.875279838211	376
0	1924	366.875279838211	377
0	1925	368	376
0	1928	370	375
0	1934	370.207156268273	376
0	1935	370.207156268273	377
0	1936	372	376
0	1942	372.304396166615	377
0	1943	372.304396166615	378
0	1947	372.431634033445	379
0	1948	372.431634033445	380
0	1949	374	379
0	1955	374.237778532515	380
0	1956	374.237778532515	381
0	1960	374.746119015878	382
0	1961	374.746119015878	383
0	1962	376	382
0	1968	377.198181111895	383
0	1969	377.198181111895	384
0	1970	378	383
0	1976	379.207457173524	384
0	1977	379.207457173524	385
0	1981	379.493542196513	386
0	1982	379.493542196513	387
0	1986	379.764064252448	388
0	1987	379.764064252448	389
0	1988	380	388
0	1994	380.089714972817	389
0	1995	380.089714972817	390
0	1996	382	389
0	2002	383.408932987089	390
0	2003	383.408932987089	391
0	2004	384	390
0	2010	384.553298270977	391
0	2011	384.553298270977	392
0	2012	386	391
0	2018	386.210521061415	392
0	2019	386.210521061415	393
0	2023	386.246856513769	394
0	2024	386.246856513769	395
0	2028	387.003198233863	396
0	2029	387.003198233863	397
0	2033	387.987066889424	398
0	2034	387.987066889424	399
0	2035	388	398
0	2041	388.36568575702	399
0	2042	388.36568575702	400
0	2046	388.61284014008	401
0	2047	388.61284014008	402
0	2048	390	401
0	2054	390.219543316978	402
0	2055	390.219543316978	403
0	2059	390.848939898578	404
0	2060	390.848939898578	405
0	2061	392	404
0	2067	392.944660027269	405
0	2068	392.944660027269	406
0	2072	393.846461965061	407
0	2073	393.846461965061	408
0	2074	394	407
0	2080	395.107627163466	408
0	2081	395.107627163466	409
0	2085	395.918895808358	410
0	2086	395.918895808358	411
0	2090	395.95471392988	412
0	2091	395.95471392988	413
0	2092	396	412
0	2098	396.860373846389	413
0	2099	396.860373846389	414
0	2103	397.384226509117	415
0	2104	397.384226509117	416
0	2105	398	415
0	2111	399.012557437945	416
0	2112	399.012557437945	417
0	2113	400	416
0	2119	401.870246183083	417
0	2120	401.870246183083	418
0	2121	402	417
0	2127	403.588583413823	418
0	2128	403.588583413823	419
0	2129	404	418
0	2135	404.99218255363	419
0	2136	404.99218255363	420
0	2140	405.237182640689	421
0	2141	405.237182640689	422
0	2142	406	421
0	2148	407.406461612541	422
0	2149	407.406461612541	423
0	2153	407.891974234881	424
0	2154	407.891974234881	425
0	2155	408	424
0	2161	408.393062135876	425
0	2162	408.393062135876	426
0	2163	410	425
0	2169	411.088757903497	426
0	2170	411.088757903497	427
0	2171	412	426
0	2174	414	425
0	2180	414.199874884162	426
0	2181	414.199874884162	427
0	2185	414.27136013316	428
0	2186	414.27136013316	429
0	2190	415.165278066111	430
0	2191	415.165278066111	431
0	2192	416	430
0	2198	416.012939230927	431
0	2199	416.012939230927	432
0	2203	416.443419417415	433
0	2204	416.443419417415	434
0	2208	416.801202626402	435
0	2209	416.801202626402	436
0	2213	417.919066382783	437
0	2214	417.919066382783	438
0	2215	418	437
0	2221	418.659372695643	438
0	2222	418.659372695643	439
0	2226	419.971649504389	440
0	2227	419.971649504389	441
0	2228	420	440
0	2231	422	439
0	2237	422.429604118028	440
0	2238	422.429604118028	441
0	2242	423.312215103067	442
0	2243	423.312215103067	443
0	2244	424	442
0	2250	425.084982289226	443
0	2251	425.084982289226	444
0	2252	426	443
0	2255	428	442
0	2261	428.629917027334	443
0	2262	428.629917027334	444
0	2263	430	443
0	2269	430.162547774757	444
0	2270	430.162547774757	445
0	2274	431.598105049465	446
0	2275	431.598105049465	447
0	2276	432	446
0	2282	432.372603873515	447
0	2283	432.372603873515	448
0	2287	433.552876124865	449
0	2288	433.552876124865	450
0	2292	433.745991936214	451
0	2293	433.745991936214	452
0	2294	434	451
0	2300	434.522441969471	452
0	2301	434.522441969471	453
0	2302	436	452
0	2305	438	451
0	2311	438.193299911814	452
0	2312	438.193299911814	453
0	2316	439.228300858356	454
0	2317	439.228300858356	455
0	2318	440	454
0	2324	441.770617979417	455
0	2325	441.770617979417	456
0	2326	442	455
0	2332	442.096407116182	456
0	2333	442.096407116182	457
0	2337	442.326666336889	458
0	2338	442.326666336889	459
0	2342	443.352385775872	460
0	2343	443.352385775872	461
0	2347	443.483816540446	462
0	2348	443.483816540446	463
0	2349	444	462
0	2355	444.387765979034	463
0	2356	444.387765979034	464
0	2360	445.08617576028	465
0	2361	445.08617576028	466
0	2362	446	465
0	2368	447.668197218399	466
0	2369	447.668197218399	467
0	2370	448	466
0	2376	449.492395559745	467
0	2377	449.492395559745	468
0	2381	449.724974649414	469
0	2382	449.724974649414	470
0	2383	450	469
0	2389	450.331738187963	470
0	2390	450.331738187963	471
0	2394	450.428881766709	472
0	2395	450.428881766709	473
0	2399	450.500490552973	474
0	2400	450.500490552973	475
0	2404	450.78595149115	476
0	2405	450.78595149115	477
0	2406	452	476
0	2412	452.422871651825	477
0	2413	452.422871651825	478
0	2417	453.782898993746	479
0	2418	453.782898993746	480
0	2419	454	479
0	2425	454.059296571693	480
0	2426	454.059296571693	481
0	2430	454.917850017471	482
0	2431	454.917850017471	483
0	2435	455.767492620379	484
0	2436	455.767492620379	485
0	2437	456	484
0	2440	458	483
0	2446	458.242322550972	484
0	2447	458.242322550972	485
0	2451	459.215511087787	486
0	2452	459.215511087787	487
0	2453	460	486
0	2459	461.232816550406	487
0	2460	461.232816550406	488
0	2461	462	487
0	2467	462.417717941599	488
0	2468	462.417717941599	489
0	2472	462.893793147812	490
0	2473	462.893793147812	491
0	2474	464	490
0	2480	465.492103867818	491
0	2481	465.492103867818	492
0	2482	466	491
0	2488	467.63443757895	492
0	2489	467.63443757895	493
0	2490	468	492
0	2493	470	491
0	2499	470.453045933767	492
0	2500	470.453045933767	493
0	2504	471.573840384313	494
0	2505	471.573840384313	495
0	2509	471.853663604313	496
0	2510	471.853663604313	497
0	2511	472	496
0	2517	472.113810701836	497
0	2518	472.113810701836	498
0	2522	472.975908506712	499
0	2523	472.975908506712	500
0	2527	473.724633135002	501
0	2528	473.724633135002	502
0	2529	474	501
0	2535	474.479660153341	502
0	2536	474.479660153341	503
0	2537	476	502
0	2543	477.007815587298	503
0	2544	477.007815587298	504
0	2548	477.451476850661	505
0	2549	477.451476850661	506
0	2550	478	505
0	2556	479.646869942424	506
0	2557	479.646869942424	507
0	2558	480	506
0	2564	480.267045230953	507
0	2565	480.267045230953	508
0	2569	481.969775907551	509
0	2570	481.969775907551	510
0	2571	482	509
0	2577	483.044763800228	510
0	2578	483.044763800228	511
0	2579	484	510
0	2585	485.411918151808	511
0	2586	485.411918151808	512
0	2587	486	511
0	2593	486.539612421875	512
0	2594	486.539612421875	513
0	2595	488	512
0	2601	488.522327871998	513
0	2602	488.522327871998	514
0	2606	489.823519707064	515
0	2607	489.823519707064	516
0	2608	490	515
0	2614	490.129234294165	516
0	2615	490.129234294165	517
0	2619	491.006150680005	518
0	2620	491.006150680005	519
0	2621	492	518
0	2627	493.767980573904	519
0	2628	493.767980573904	520
0	2629	494	519
0	2635	494.864672263301	520
0	2636	494.864672263301	521
0	2637	496	520
0	2643	496.39170616813	521
0	2644	496.39170616813	522
0	2648	497.200136243128	523
0	2649	497.200136243128	524
0	2650	498	523
0	2656	499.982485328002	524
0	2657	499.982485328002	525
0	2658	500	524
0	2664	501.174471858401	525
0	2665	501.174471858401	526
0	2669	501.92602895398	527
0	2670	501.92602895398	528
0	2671	502	527
0	2677	502.421932009635	528
0	2678	502.421932009635	529
0	2679	504	528
0	2685	504.279271456181	529
0	2686	504.279271456181	530
0	2690	504.845727735973	531
0	2691	504.845727735973	532
0	2692	506	531
0	2698	506.61456517907	532
0	2699	506.61456517907	533
0	2700	508	532
0	2706	509.020162471892	533
0	2707	509.020162471892	534
0	2708	510	533
0	2711	512	532
0	2717	513.044998689936	533
0	2718	513.044998689936	534
0	2719	514	533
0	2725	515.798003002799	534
0	2726	515.798003002799	535
0	2727	516	534
0	2733	517.736868728809	535
0	2734	517.736868728809	536
0	2735	518	535
0	2741	519.62347499436	536
0	2742	519.62347499436	537
0	2743	520	536
0	2749	520.741941153532	537
0	2750	520.741941153532	538
0	2751	522	537
0	2757	522.994733894839	538
0	2758	522.994733894839	539
0	2759	524	538
0	2762	526	537
0	2768	526.693709820782	538
0	2769	526.693709820782	539
0	2770	528	538
0	2776	528.154029673497	539
0	2777	528.154029673497	540
0	2778	530	539
0	2784	530.499106153243	540
0	2785	530.499106153243	541
0	2786	532	540
0	2792	532.317445248053	541
0	2793	532.317445248053	542
0	2797	533.69620439574	543
0	2798	533.69620439574	544
0	2799	534	543
0	2805	535.874014423537	544
0	2806	535.874014423537	545
0	2807	536	544
0	2813	536.465501164813	545
0	2814	536.465501164813	546
0	2815	538	545
0	2821	538.675005164619	546
0	2822	538.675005164619	547
0	2823	540	546
0	2829	541.089743072725	547
0	2830	541.089743072725	548
0	2834	541.657395598237	549
0	2835	541.657395598237	550
0	2836	542	549
0	2842	542.547104927994	550
0	2843	542.547104927994	551
0	2847	543.956600263851	552
0	2848	543.956600263851	553
0	2849	544	552
0	2855	545.248266166247	553
0	2856	545.248266166247	554
0	2857	546	553
0	2863	546.043065058432	554
0	2864	546.043065058432	555
0	2868	547.201581871923	556
0	2869	547.201581871923	557
0	2870	548	556
0	2876	548.881352523535	557
0	2877	548.881352523535	558
0	2878	550	557
0	2884	550.010124995143	558
0	2885	550.010124995143	559
0	2889	550.119954285956	560
0	2890	550.119954285956	561
0	2894	550.971518124492	562
0	2895	550.971518124492	563
0	2899	551.484913894021	564
0	2900	551.484913894021	565
0	2901	552	564
0	2907	552.721465120804	565
0	2908	552.721465120804	566
0	2912	553.874034246471	567
0	2913	553.874034246471	568
0	2914	554	567
0	2920	554.468393100961	568
0	2921	554.468393100961	569
0	2925	555.577550128453	570
0	2926	555.577550128453	571
0	2927	556	570
0	2933	557.087238903996	571
0	2934	557.087238903996	572
0	2938	557.481909903155	573
0	2939	557.481909903155	574
0	2940	558	573
0	2946	558.1233899479	574
0	2947	558.1233899479	575
0	2948	560	574
0	2954	560.300241167738	575
0	2955	560.300241167738	576
0	2959	560.654357286076	577
0	2960	560.654357286076	578
0	2964	560.977040988484	579
0	2965	560.977040988484	580
0	2966	562	579
0	2972	562.622057653175	580
0	2973	562.622057653175	581
0	2977	563.818726944759	582
0	2978	563.818726944759	583
0	2982	563.966226764841	584
0	2983	563.966226764841	585
0	2984	564	584
0	2987	566	583
0	2993	566.322238369553	584
0	2994	566.322238369553	585
0	2998	567.990726547654	586
0	2999	567.990726547654	587
0	3000	568	586
0	3006	569.338239976598	587
0	3007	569.338239976598	588
0	3011	569.460405283317	589
0	3012	569.460405283317	590
0	3013	570	589
0	3019	570.673047759049	590
0	3020	570.673047759049	591
0	3021	572	590
0	3027	572.083526424141	591
0	3028	572.083526424141	592
0	3032	573.823076908094	593
0	3033	573.823076908094	594
0	3034	574	593
0	3040	574.559989126567	594
0	3041	574.559989126567	595
0	3042	576	594
0	3048	576.447589513252	595
0	3049	576.447589513252	596
0	3050	578	595
0	3056	579.41977049534	596
0	3057	579.41977049534	597
0	3058	580	596
0	3064	580.223515500164	597
0	3065	580.223515500164	598
0	3069	580.330843391966	599
0	3070	580.330843391966	600
0	3071	582	599
0	3074	584	598
0	3080	584.207454699253	599
0	3081	584.207454699253	600
0	3085	585.646208702806	601
0	3086	585.646208702806	602
0	3087	586	601
0	3090	588	600
0	3096	588.72946889227	601
0	3097	588.72946889227	602
0	3098	590	601
0	3104	590.035105867134	602
0	3105	590.035105867134	603
0	3109	590.65703879275	604
0	3110	590.65703879275	605
0	3111	592	604
0	3117	592.032862316712	605
0	3118	592.032862316712	606
0	3122	593.885319985451	607
0	3123	593.885319985451	608
0	3124	594	607