version 3
run k_MM1_rand-19-20221127-16:03:21-5740
attr configname k_MM1_rand
attr datetime 20221127-16:03:21
attr datetimef 20221127-160321
attr experiment k_MM1_rand
attr inifile omnetpp.ini
attr iterationvars "$time=2.0, $num=1, $0=33434, $1=56673, $2=23567"
attr iterationvarsd time=2.0/num=1/33434/56673/23567
attr iterationvarsf time=2.0,num=1,33434,56673,23567-
attr measurement "$time=2.0, $num=1, $0=33434, $1=56673, $2=23567"
attr network randkMM1
attr processid 5740
attr repetition 3
attr replication #3
attr resultdir results
attr runnumber 19
attr seedset 19
itervar num 1
itervar time 2.0
config description "MM1 module k-times random"
config network randkMM1
config **.source.interArrivalTime "truncnormal(0.5s, 1.5s)"
config **.serviceTime 2.0s
config **.c 1
config **.capacity 10000
config record-eventlog false
config **.scalar-recording true
config **.vector-recording true
config repeat 4
config seed-1-mt 33434
config seed-2-mt 56673
config seed-3-mt 23567
config output-vector-file k_MM1_rand-1-2.0-results/3.vec
config output-scalar-file k_MM1_rand-1-2.0-results/3.sca

vector 0 randkMM1.mm1[0] queueLength:vector ETV
attr interpolationmode none
attr recordingmode vector
attr title "queue length"
vector 1 randkMM1.mm1[0] util:vector ETV
attr interpolationmode none
attr recordingmode vector
attr title resources
0	5	10	1
0	9	10.255706020694	2
0	10	10.255706020694	3
0	14	10.715239782905	4
0	15	10.715239782905	5
0	19	11.819843488632	6
0	20	11.819843488632	7
0	21	12	6
0	27	13.976019935401	7
0	28	13.976019935401	8
0	29	14	7
0	32	16	6
0	38	17.191525386941	7
0	39	17.191525386941	8
0	40	18	7
0	43	20	6
0	49	21.933532619956	7
0	50	21.933532619956	8
0	51	22	7
0	57	23.0432457123	8
0	58	23.0432457123	9
0	59	24	8
0	65	25.328347694331	9
0	66	25.328347694331	10
0	70	25.602513272846	11
0	71	25.602513272846	12
0	72	26	11
0	78	26.041013777953	12
0	79	26.041013777953	13
0	83	27.119405763357	14
0	84	27.119405763357	15
0	85	28	14
0	91	28.238434426476	15
0	92	28.238434426476	16
0	93	30	15
0	99	30.025546518261	16
0	100	30.025546518261	17
0	101	32	16
0	107	32.650944469683	17
0	108	32.650944469683	18
0	109	34	17
0	115	35.266597042458	18
0	116	35.266597042458	19
0	117	36	18
0	123	36.194395110553	19
0	124	36.194395110553	20
0	128	36.890927908477	21
0	129	36.890927908477	22
0	133	37.032230026118	23
0	134	37.032230026118	24
0	135	38	23
0	141	39.180912656676	24
0	142	39.180912656676	25
0	143	40	24
0	149	41.175790334533	25
0	150	41.175790334533	26
0	154	41.252156882738	27
0	155	41.252156882738	28
0	159	41.505014092532	29
0	160	41.505014092532	30
0	161	42	29
0	167	42.800331663814	30
0	168	42.800331663814	31
0	169	44	30
0	175	44.026464026523	31
0	176	44.026464026523	32
0	180	44.447849476689	33
0	181	44.447849476689	34
0	185	44.467491876169	35
0	186	44.467491876169	36
0	190	45.14219620642	37
0	191	45.14219620642	38
0	192	46	37
0	198	47.61554151153	38
0	199	47.61554151153	39
0	200	48	38
0	206	49.961218176436	39
0	207	49.961218176436	40
0	208	50	39
0	214	50.404999589658	40
0	215	50.404999589658	41
0	219	50.957400780102	42
0	220	50.957400780102	43
0	221	52	42
0	227	53.462027744227	43
0	228	53.462027744227	44
0	229	54	43
0	235	54.769808131865	44
0	236	54.769808131865	45
0	237	56	44
0	243	57.503296523012	45
0	244	57.503296523012	46
0	245	58	45
0	251	59.035365699708	46
0	252	59.035365699708	47
0	253	60	46
0	259	61.639286589376	47
0	260	61.639286589376	48
0	261	62	47
0	267	62.305123043223	48
0	268	62.305123043223	49
0	269	64	48
0	275	65.103071276436	49
0	276	65.103071276436	50
0	277	66	49
0	283	67.109434043066	50
0	284	67.109434043066	51
0	288	67.357788011997	52
0	289	67.357788011997	53
0	293	67.581429213273	54
0	294	67.581429213273	55
0	295	68	54
0	301	69.065200370469	55
0	302	69.065200370469	56
0	303	70	55
0	309	70.502455314375	56
0	310	70.502455314375	57
0	311	72	56
0	317	72.206640879986	57
0	318	72.206640879986	58
0	322	73.593647202412	59
0	323	73.593647202412	60
0	324	74	59
0	330	75.183724166001	60
0	331	75.183724166001	61
0	335	75.538855792573	62
0	336	75.538855792573	63
0	337	76	62
0	343	77.659679190369	63
0	344	77.659679190369	64
0	345	78	63
0	351	78.764165338274	64
0	352	78.764165338274	65
0	353	80	64
0	359	80.212642542679	65
0	360	80.212642542679	66
0	364	81.345853465878	67
0	365	81.345853465878	68
0	369	81.698055552143	69
0	370	81.698055552143	70
0	374	81.901103295811	71
0	375	81.901103295811	72
0	376	82	71
0	382	83.866639348507	72
0	383	83.866639348507	73
0	384	84	72
0	390	84.133203179969	73
0	391	84.133203179969	74
0	395	85.239183112791	75
0	396	85.239183112791	76
0	397	86	75
0	403	86.941594488225	76
0	404	86.941594488225	77
0	408	87.404277577167	78
0	409	87.404277577167	79
0	410	88	78
0	416	88.079026575457	79
0	417	88.079026575457	80
0	421	88.953402644516	81
0	422	88.953402644516	82
0	426	89.659831994602	83
0	427	89.659831994602	84
0	428	90	83
0	434	91.162358087455	84
0	435	91.162358087455	85
0	436	92	84
0	439	94	83
0	445	94.197632554204	84
0	446	94.197632554204	85
0	450	95.229525133532	86
0	451	95.229525133532	87
0	452	96	86
0	455	98	85
0	461	98.024341143486	86
0	462	98.024341143486	87
0	466	99.872489199246	88
0	467	99.872489199246	89
0	468	100	88
0	474	101.534032659914	89
0	475	101.534032659914	90
0	476	102	89
0	479	104	88
0	485	104.200444703413	89
0	486	104.200444703413	90
0	487	106	89
0	493	106.141014784202	90
0	494	106.141014784202	91
0	498	107.988360889523	92
0	499	107.988360889523	93
0	500	108	92
0	503	110	91
0	509	110.21589667429	92
0	510	110.21589667429	93
0	514	111.41965395374	94
0	515	111.41965395374	95
0	516	112	94
0	522	112.106941745681	95
0	523	112.106941745681	96
0	524	114	95
0	530	114.817962581587	96
0	531	114.817962581587	97
0	535	115.500536172236	98
0	536	115.500536172236	99
0	537	116	98
0	543	117.205187335778	99
0	544	117.205187335778	100
0	545	118	99
0	548	120	98
0	554	120.066695231283	99
0	555	120.066695231283	100
0	559	120.897415530059	101
0	560	120.897415530059	102
0	561	122	101
0	567	122.687959957501	102
0	568	122.687959957501	103
0	569	124	102
0	575	125.018791859359	103
0	576	125.018791859359	104
0	577	126	103
0	583	126.446687100194	104
0	584	126.446687100194	105
0	588	126.71634652806	106
0	589	126.71634652806	107
0	590	128	106
0	596	128.425076131033	107
0	597	128.425076131033	108
0	601	129.287982647284	109
0	602	129.287982647284	110
0	606	129.52168764839	111
0	607	129.52168764839	112
0	608	130	111
0	614	130.800268847216	112
0	615	130.800268847216	113
0	619	131.331908832541	114
0	620	131.331908832541	115
0	621	132	114
0	627	132.192795257995	115
0	628	132.192795257995	116
0	632	133.711606338445	117
0	633	133.711606338445	118
0	634	134	117
0	640	135.720217722445	118
0	641	135.720217722445	119
0	642	136	118
0	648	137.324775623319	119
0	649	137.324775623319	120
0	650	138	119
0	656	138.260185974899	120
0	657	138.260185974899	121
0	658	140	120
0	664	140.690239372089	121
0	665	140.690239372089	122
0	669	141.733544972525	123
0	670	141.733544972525	124
0	671	142	123
0	677	143.812329024827	124
0	678	143.812329024827	125
0	679	144	124
0	685	145.535268876005	125
0	686	145.535268876005	126
0	687	146	125
0	693	147.544288694961	126
0	694	147.544288694961	127
0	695	148	126
0	701	148.699892844546	127
0	702	148.699892844546	128
0	703	150	127
0	709	150.44042166035	128
0	710	150.44042166035	129
0	714	151.908342855708	130
0	715	151.908342855708	131
0	716	152	130
0	722	153.351099618546	131
0	723	153.351099618546	132
0	724	154	131
0	730	155.341690725505	132
0	731	155.341690725505	133
0	735	155.48494840092	134
0	736	155.48494840092	135
0	740	155.955843787908	136
0	741	155.955843787908	137
0	742	156	136
0	748	156.695165534658	137
0	749	156.695165534658	138
0	750	158	137
0	756	158.697924356244	138
0	757	158.697924356244	139
0	758	160	138
0	764	160.355677190732	139
0	765	160.355677190732	140
0	766	162	139
0	772	162.47407106921	140
0	773	162.47407106921	141
0	774	164	140
0	780	164.051519430239	141
0	781	164.051519430239	142
0	782	166	141
0	788	166.549127475677	142
0	789	166.549127475677	143
0	790	168	142
0	796	168.207080331723	143
0	797	168.207080331723	144
0	798	170	143
0	804	171.40022670394	144
0	805	171.40022670394	145
0	806	172	144
0	812	172.878212463055	145
0	813	172.878212463055	146
0	817	172.959726604815	147
0	818	172.959726604815	148
0	819	174	147
0	825	174.749259983713	148
0	826	174.749259983713	149
0	827	176	148
0	830	178	147
0	836	178.155055940772	148
0	837	178.155055940772	149
0	841	178.232070506809	150
0	842	178.232070506809	151
0	846	178.690039211658	152
0	847	178.690039211658	153
0	848	180	152
0	854	180.130767442884	153
0	855	180.130767442884	154
0	859	181.776006188172	155
0	860	181.776006188172	156
0	861	182	155
0	867	182.014559200478	156
0	868	182.014559200478	157
0	869	184	156
0	875	185.463062685765	157
0	876	185.463062685765	158
0	877	186	157
0	883	186.64264546492	158
0	884	186.64264546492	159
0	888	187.038681146685	160
0	889	187.038681146685	161
0	893	187.521293161482	162
0	894	187.521293161482	163
0	898	187.575451986289	164
0	899	187.575451986289	165
0	900	188	164
0	906	188.289245917732	165
0	907	188.289245917732	166
0	911	189.019614355327	167
0	912	189.019614355327	168
0	916	189.620554196444	169
0	917	189.620554196444	170
0	918	190	169
0	924	190.423503830427	170
0	925	190.423503830427	171
0	926	192	170
0	932	192.730321114343	171
0	933	192.730321114343	172
0	937	193.419843973233	173
0	938	193.419843973233	174
0	942	193.960116957242	175
0	943	193.960116957242	176
0	947	193.969886806187	177
0	948	193.969886806187	178
0	949	194	177
0	955	195.268207704168	178
0	956	195.268207704168	179
0	957	196	178
0	963	196.39038184261	179
0	964	196.39038184261	180
0	968	197.471577588489	181
0	969	197.471577588489	182
0	970	198	181
0	976	198.156962601651	182
0	977	198.156962601651	183
0	981	198.99063210999	184
0	982	198.99063210999	185
0	986	199.203052336503	186
0	987	199.203052336503	187
0	991	199.271718346424	188
0	992	199.271718346424	189
0	993	200	188
0	999	200.617200782432	189
0	1000	200.617200782432	190
0	1001	202	189
0	1007	202.084902016602	190
0	1008	202.084902016602	191
0	1012	203.053409030573	192
0	1013	203.053409030573	193
0	1014	204	192
0	1017	206	191
0	1023	206.168545001744	192
0	1024	206.168545001744	193
0	1028	207.161989667299	194
0	1029	207.161989667299	195
0	1033	207.774686957043	196
0	1034	207.774686957043	197
0	1035	208	196
0	1041	209.604533051736	197
0	1042	209.604533051736	198
0	1043	210	197
0	1049	210.178297992145	198
0	1050	210.178297992145	199
0	1054	211.979164813149	200
0	1055	211.979164813149	201
0	1056	212	200
0	1062	213.970942601173	201
0	1063	213.970942601173	202
0	1064	214	201
0	1070	214.479485387871	202
0	1071	214.479485387871	203
0	1075	215.126614986174	204
0	1076	215.126614986174	205
0	1077	216	204
0	1083	216.341674266662	205
0	1084	216.341674266662	206
0	1085	218	205
0	1091	218.339017182523	206
0	1092	218.339017182523	207
0	1096	218.587877789324	208
0	1097	218.587877789324	209
0	1098	220	208
0	1104	220.951603636201	209
0	1105	220.951603636201	210
0	1106	222	209
0	1112	222.364296837001	210
0	1113	222.364296837001	211
0	1117	223.354472533695	212
0	1118	223.354472533695	213
0	1119	224	212
0	1125	224.843687822315	213
0	1126	224.843687822315	214
0	1127	226	213
0	1133	227.260175243926	214
0	1134	227.260175243926	215
0	1135	228	214
0	1141	228.560872183212	215
0	1142	228.560872183212	216
0	1146	228.775342682013	217
0	1147	228.775342682013	218
0	1148	230	217
0	1154	230.660116584404	218
0	1155	230.660116584404	219
0	1159	231.667771990837	220
0	1160	231.667771990837	221
0	1164	231.686716453912	222
0	1165	231.686716453912	223
0	1166	232	222
0	1172	233.821345053398	223
0	1173	233.821345053398	224
0	1174	234	223
0	1180	235.68310687625	224
0	1181	235.68310687625	225
0	1182	236	224
0	1185	238	223
0	1191	238.742592455371	224
0	1192	238.742592455371	225
0	1196	238.942331168888	226
0	1197	238.942331168888	227
0	1201	239.926312153976	228
0	1202	239.926312153976	229
0	1203	240	228
0	1209	240.677708733847	229
0	1210	240.677708733847	230
0	1214	240.939981536579	231
0	1215	240.939981536579	232
0	1219	240.979963590298	233
0	1220	240.979963590298	234
0	1221	242	233
0	1227	242.872681827739	234
0	1228	242.872681827739	235
0	1229	244	234
0	1235	244.330631559442	235
0	1236	244.330631559442	236
0	1240	245.795512605686	237
0	1241	245.795512605686	238
0	1242	246	237
0	1248	246.628855598035	238
0	1249	246.628855598035	239
0	1253	247.260997767546	240
0	1254	247.260997767546	241
0	1258	247.83921684866	242
0	1259	247.83921684866	243
0	1260	248	242
0	1266	248.318643039252	243
0	1267	248.318643039252	244
0	1268	250	243
0	1274	251.251507229573	244
0	1275	251.251507229573	245
0	1276	252	244
0	1282	253.583294401428	245
0	1283	253.583294401428	246
0	1284	254	245
0	1290	254.238201593369	246
0	1291	254.238201593369	247
0	1295	254.522691579508	248
0	1296	254.522691579508	249
0	1300	255.825394387533	250
0	1301	255.825394387533	251
0	1302	256	250
0	1305	258	249
0	1311	259.084464535595	250
0	1312	259.084464535595	251
0	1316	259.409509069241	252
0	1317	259.409509069241	253
0	1318	260	252
0	1324	260.238568337977	253
0	1325	260.238568337977	254
0	1329	261.845868560087	255
0	1330	261.845868560087	256
0	1334	261.940507376232	257
0	1335	261.940507376232	258
0	1336	262	257
0	1339	264	256
0	1342	266	255
0	1348	267.052427104366	256
0	1349	267.052427104366	257
0	1353	267.397572122396	258
0	1354	267.397572122396	259
0	1355	268	258
0	1361	268.859601346407	259
0	1362	268.859601346407	260
0	1363	270	259
0	1369	270.496008045281	260
0	1370	270.496008045281	261
0	1371	272	260
0	1377	272.584842086242	261
0	1378	272.584842086242	262
0	1379	274	261
0	1382	276	260
0	1388	276.212937265627	261
0	1389	276.212937265627	262
0	1393	277.076693681139	263
0	1394	277.076693681139	264
0	1398	277.18645069545	265
0	1399	277.18645069545	266
0	1400	278	265
0	1406	279.845948784945	266
0	1407	279.845948784945	267
0	1408	280	266
0	1414	280.616610393448	267
0	1415	280.616610393448	268
0	1419	280.823687078166	269
0	1420	280.823687078166	270
0	1424	280.916245111654	271
0	1425	280.916245111654	272
0	1426	282	271
0	1432	283.203625252771	272
0	1433	283.203625252771	273
0	1434	284	272
0	1440	285.690841733012	273
0	1441	285.690841733012	274
0	1442	286	273
0	1448	286.262870022311	274
0	1449	286.262870022311	275
0	1453	287.743384406194	276
0	1454	287.743384406194	277
0	1455	288	276
0	1461	289.120079140036	277
0	1462	289.120079140036	278
0	1466	289.49831777932	279
0	1467	289.49831777932	280
0	1468	290	279
0	1474	291.516367307277	280
0	1475	291.516367307277	281
0	1476	292	280
0	1482	292.647944502597	281
0	1483	292.647944502597	282
0	1487	293.567030891427	283
0	1488	293.567030891427	284
0	1489	294	283
0	1495	294.037349542059	284
0	1496	294.037349542059	285
0	1500	295.666782775556	286
0	1501	295.666782775556	287
0	1502	296	286
0	1508	296.469025681651	287
0	1509	296.469025681651	288
0	1513	296.668326331654	289
0	1514	296.668326331654	290
0	1515	298	289
0	1521	299.624070932494	290
0	1522	299.624070932494	291
0	1523	300	290
0	1529	300.328928002773	291
0	1530	300.328928002773	292
0	1531	302	291
0	1537	302.408703288017	292
0	1538	302.408703288017	293
0	1542	303.086861579663	294
0	1543	303.086861579663	295
0	1547	303.20137416064	296
0	1548	303.20137416064	297
0	1549	304	296
0	1555	305.765916149171	297
0	1556	305.765916149171	298
0	1557	306	297
0	1563	306.96800746738	298
0	1564	306.96800746738	299
0	1565	308	298
0	1571	308.420684678972	299
0	1572	308.420684678972	300
0	1576	309.40618381716	301
0	1577	309.40618381716	302
0	1581	309.477457209227	303
0	1582	309.477457209227	304
0	1583	310	303
0	1589	310.914337300211	304
0	1590	310.914337300211	305
0	1594	311.333842161045	306
0	1595	311.333842161045	307
0	1596	312	306
0	1602	313.022404074984	307
0	1603	313.022404074984	308
0	1607	313.363094444459	309
0	1608	313.363094444459	310
0	1609	314	309
0	1615	314.514514264757	310
0	1616	314.514514264757	311
0	1620	314.763369128763	312
0	1621	314.763369128763	313
0	1625	314.835597812795	314
0	1626	314.835597812795	315
0	1627	316	314
0	1633	316.061974384593	315
0	1634	316.061974384593	316
0	1635	318	315
0	1638	320	314
0	1644	321.643637655433	315
0	1645	321.643637655433	316
0	1646	322	315
0	1652	322.862387331248	316
0	1653	322.862387331248	317
0	1654	324	316
0	1660	325.206576220525	317
0	1661	325.206576220525	318
0	1662	326	317
0	1668	326.73221710916	318
0	1669	326.73221710916	319
0	1673	327.025518439473	320
0	1674	327.025518439473	321
0	1675	328	320
0	1681	328.0374445039	321
0	1682	328.0374445039	322
0	1686	328.447461189013	323
0	1687	328.447461189013	324
0	1688	330	323
0	1694	330.814685396764	324
0	1695	330.814685396764	325
0	1696	332	324
0	1702	332.165754911882	325
0	1703	332.165754911882	326
0	1707	333.118111361838	327
0	1708	333.118111361838	328
0	1712	333.119436154762	329
0	1713	333.119436154762	330
0	1714	334	329
0	1720	335.31977431219	330
0	1721	335.31977431219	331
0	1722	336	330
0	1728	337.426292622708	331
0	1729	337.426292622708	332
0	1733	337.750932283412	333
0	1734	337.750932283412	334
0	1735	338	333
0	1741	338.621704843581	334
0	1742	338.621704843581	335
0	1743	340	334
0	1749	340.916744290297	335
0	1750	340.916744290297	336
0	1751	342	335
0	1757	342.033083519309	336
0	1758	342.033083519309	337
0	1762	343.030872646128	338
0	1763	343.030872646128	339
0	1764	344	338
0	1770	345.72089492738	339
0	1771	345.72089492738	340
0	1772	346	339
0	1778	346.823763964084	340
0	1779	346.823763964084	341
0	1783	347.310464664466	342
0	1784	347.310464664466	343
0	1785	348	342
0	1791	348.489449161622	343
0	1792	348.489449161622	344
0	1796	348.733557242887	345
0	1797	348.733557242887	346
0	1801	349.200415515618	347
0	1802	349.200415515618	348
0	1803	350	347
0	1806	352	346
0	1812	352.491549902956	347
0	1813	352.491549902956	348
0	1814	354	347
0	1820	354.014561622292	348
0	1821	354.014561622292	349
0	1822	356	348
0	1828	356.091297637641	349
0	1829	356.091297637641	350
0	1830	358	349
0	1836	358.318804035422	350
0	1837	358.318804035422	351
0	1841	359.205156226149	352
0	1842	359.205156226149	353
0	1843	360	352
0	1846	362	351
0	1852	362.58261745255	352
0	1853	362.58261745255	353
0	1857	363.523977027855	354
0	1858	363.523977027855	355
0	1862	363.698554664549	356
0	1863	363.698554664549	357
0	1864	364	356
0	1870	364.02991394173	357
0	1871	364.02991394173	358
0	1875	365.481330086675	359
0	1876	365.481330086675	360
0	1877	366	359
0	1880	368	358
0	1886	368.23172317435	359
0	1887	368.23172317435	360
0	1891	369.274775774943	361
0	1892	369.274775774943	362
0	1893	370	361
0	1899	371.913354524658	362
0	1900	371.913354524658	363
0	1901	372	362
0	1904	374	361
0	1910	374.849658307584	362
0	1911	374.849658307584	363
0	1912	376	362
0	1918	376.181456811749	363
0	1919	376.181456811749	364
0	1923	377.472964010172	365
0	1924	377.472964010172	366
0	1925	378	365
0	1931	379.990654253802	366
0	1932	379.990654253802	367
0	1933	380	366
0	1939	380.032466385872	367
0	1940	380.032466385872	368
0	1944	380.905796982345	369
0	1945	380.905796982345	370
0	1949	380.955276731085	371
0	1950	380.955276731085	372
0	1954	381.39120440772	373
0	1955	381.39120440772	374
0	1956	382	373
0	1959	384	372
0	1965	384.424097562109	373
0	1966	384.424097562109	374
0	1970	384.779157743842	375
0	1971	384.779157743842	376
0	1975	385.097535733198	377
0	1976	385.097535733198	378
0	1977	386	377
0	1983	386.097338643815	378
0	1984	386.097338643815	379
0	1988	386.199795460449	380
0	1989	386.199795460449	381
0	1990	388	380
0	1996	388.220615180276	381
0	1997	388.220615180276	382
0	1998	390	381
0	2004	390.310924075233	382
0	2005	390.310924075233	383
0	2006	392	382
0	2012	392.003684455363	383
0	2013	392.003684455363	384
0	2017	393.628794594711	385
0	2018	393.628794594711	386
0	2019	394	385
0	2025	394.018517239121	386
0	2026	394.018517239121	387
0	2030	394.173652495385	388
0	2031	394.173652495385	389
0	2035	394.829104882053	390
0	2036	394.829104882053	391
0	2037	396	390
0	2043	396.325140906826	391
0	2044	396.325140906826	392
0	2045	398	391
0	2051	398.07234532295	392
0	2052	398.07234532295	393
0	2056	399.143058885872	394
0	2057	399.143058885872	395
0	2061	399.196249270103	396
0	2062	399.196249270103	397
0	2063	400	396
0	2069	401.623430696088	397
0	2070	401.623430696088	398
0	2071	402	397
0	2077	402.340166053447	398
0	2078	402.340166053447	399
0	2082	403.649587219327	400
0	2083	403.649587219327	401
0	2084	404	400
0	2090	404.204491603467	401
0	2091	404.204491603467	402
0	2095	405.238763720582	403
0	2096	405.238763720582	404
0	2097	406	403
0	2103	406.567811741834	404
0	2104	406.567811741834	405
0	2108	407.263940566247	406
0	2109	407.263940566247	407
0	2113	407.523093542407	408
0	2114	407.523093542407	409
0	2115	408	408
0	2121	408.118625936791	409
0	2122	408.118625936791	410
0	2126	408.269615105894	411
0	2127	408.269615105894	412
0	2128	410	411
0	2131	412	410
0	2137	412.297484280718	411
0	2138	412.297484280718	412
0	2142	413.82752523849	413
0	2143	413.82752523849	414
0	2144	414	413
0	2150	414.201824893085	414
0	2151	414.201824893085	415
0	2155	415.835643964669	416
0	2156	415.835643964669	417
0	2157	416	416
0	2163	417.688727904376	417
0	2164	417.688727904376	418
0	2165	418	417
0	2171	419.926700751592	418
0	2172	419.926700751592	419
0	2173	420	418
0	2179	421.677209274716	419
0	2180	421.677209274716	420
0	2181	422	419
0	2187	422.832319890347	420
0	2188	422.832319890347	421
0	2192	423.495592427904	422
0	2193	423.495592427904	423
0	2194	424	422
0	2200	424.075294659252	423
0	2201	424.075294659252	424
0	2205	424.316658528103	425
0	2206	424.316658528103	426
0	2210	424.60397033453	427
0	2211	424.60397033453	428
0	2212	426	427
0	2218	426.36005166761	428
0	2219	426.36005166761	429
0	2223	426.386375073544	430
0	2224	426.386375073544	431
0	2228	427.214613668649	432
0	2229	427.214613668649	433
0	2233	427.390215723357	434
0	2234	427.390215723357	435
0	2235	428	434
0	2241	429.058152281809	435
0	2242	429.058152281809	436
0	2243	430	435
0	2249	430.548026877136	436
0	2250	430.548026877136	437
0	2251	432	436
0	2257	433.660527113367	437
0	2258	433.660527113367	438
0	2259	434	437
0	2265	435.906340603491	438
0	2266	435.906340603491	439
0	2267	436	438
0	2273	436.475180077435	439
0	2274	436.475180077435	440
0	2275	438	439
0	2278	440	438
0	2284	440.784313297595	439
0	2285	440.784313297595	440
0	2289	441.295442808915	441
0	2290	441.295442808915	442
0	2291	442	441
0	2297	443.216337481352	442
0	2298	443.216337481352	443
0	2302	443.554624791447	444
0	2303	443.554624791447	445
0	2304	444	444
0	2310	445.687718356039	445
0	2311	445.687718356039	446
0	2312	446	445
0	2315	448	444
0	2321	449.338565785684	445
0	2322	449.338565785684	446
0	2326	449.914450887743	447
0	2327	449.914450887743	448
0	2328	450	447
0	2334	450.636056610707	448
0	2335	450.636056610707	449
0	2339	450.90454867823	450
0	2340	450.90454867823	451
0	2341	452	450
0	2347	452.311312529758	451
0	2348	452.311312529758	452
0	2352	453.944859423217	453
0	2353	453.944859423217	454
0	2354	454	453
0	2360	454.622972781456	454
0	2361	454.622972781456	455
0	2362	456	454
0	2368	456.899368879411	455
0	2369	456.899368879411	456
0	2373	457.021765545487	457
0	2374	457.021765545487	458
0	2375	458	457
0	2381	459.717579298234	458
0	2382	459.717579298234	459
0	2383	460	458
0	2386	462	457
0	2392	462.132922261489	458
0	2393	462.132922261489	459
0	2397	462.339114245386	460
0	2398	462.339114245386	461
0	2399	464	460
0	2405	464.660235377069	461
0	2406	464.660235377069	462
0	2407	466	461
0	2413	466.273161002936	462
0	2414	466.273161002936	463
0	2418	467.662627786192	464
0	2419	467.662627786192	465
0	2420	468	464
0	2426	468.250862420081	465
0	2427	468.250862420081	466
0	2431	469.395658893359	467
0	2432	469.395658893359	468
0	2433	470	467
0	2439	470.312957625816	468
0	2440	470.312957625816	469
0	2444	470.541001239861	470
0	2445	470.541001239861	471
0	2446	472	470
0	2452	472.158833746411	471
0	2453	472.158833746411	472
0	2454	474	471
0	2457	476	470
0	2463	476.035544101914	471
0	2464	476.035544101914	472
0	2468	476.902893461819	473
0	2469	476.902893461819	474
0	2470	478	473
0	2473	480	472
0	2479	480.360839315384	473
0	2480	480.360839315384	474
0	2484	481.586230771732	475
0	2485	481.586230771732	476
0	2486	482	475
0	2492	483.758431845364	476
0	2493	483.758431845364	477
0	2497	483.778343454053	478
0	2498	483.778343454053	479
0	2499	484	478
0	2502	486	477
0	2508	486.774790491775	478
0	2509	486.774790491775	479
0	2513	487.751333271782	480
0	2514	487.751333271782	481
0	2515	488	480
0	2521	489.986921745556	481
0	2522	489.986921745556	482
0	2523	490	481
0	2529	490.699254140804	482
0	2530	490.699254140804	483
0	2534	491.386176556314	484
0	2535	491.386176556314	485
0	2539	491.447338523412	486
0	2540	491.447338523412	487
0	2541	492	486
0	2544	494	485
0	2550	494.680312994309	486
0	2551	494.680312994309	487
0	2552	496	486
0	2558	496.168171856482	487
0	2559	496.168171856482	488
0	2563	497.750481103644	489
0	2564	497.750481103644	490
0	2565	498	489
0	2571	498.956827379675	490
0	2572	498.956827379675	491
0	2573	500	490
0	2576	502	489
0	2582	502.543587099927	490
0	2583	502.543587099927	491
0	2584	504	490
0	2590	504.198879584567	491
0	2591	504.198879584567	492
0	2595	505.904091167993	493
0	2596	505.904091167993	494
0	2597	506	493
0	2603	506.485177860938	494
0	2604	506.485177860938	495
0	2605	508	494
0	2611	509.794274184845	495
0	2612	509.794274184845	496
0	2613	510	495
0	2619	511.331696294525	496
0	2620	511.331696294525	497
0	2621	512	496
0	2627	512.950569401198	497
0	2628	512.950569401198	498
0	2629	514	497
0	2635	515.357321256796	498
0	2636	515.357321256796	499
0	2640	515.952637514603	500
0	2641	515.952637514603	501
0	2642	516	500
0	2648	516.546098354124	501
0	2649	516.546098354124	502
0	2653	517.929662659047	503
0	2654	517.929662659047	504
0	2658	517.94384659235	505
0	2659	517.94384659235	506
0	2663	517.960607997196	507
0	2664	517.960607997196	508
0	2665	518	507
0	2671	518.495519297898	508
0	2672	518.495519297898	509
0	2676	519.980975845364	510
0	2677	519.980975845364	511
0	2678	520	510
0	2681	522	509
0	2687	523.15120487909	510
0	2688	523.15120487909	511
0	2689	524	510
0	2695	525.160859536511	511
0	2696	525.160859536511	512
0	2697	526	511
0	2700	528	510
0	2706	528.211071642481	511
0	2707	528.211071642481	512
0	2711	528.528632417092	513
0	2712	528.528632417092	514
0	2716	529.123459237169	515
0	2717	529.123459237169	516
0	2721	529.228738064514	517
0	2722	529.228738064514	518
0	2723	530	517
0	2729	531.2963744291	518
0	2730	531.2963744291	519
0	2734	531.787590232344	520
0	2735	531.787590232344	521
0	2736	532	520
0	2742	532.855493984376	521
0	2743	532.855493984376	522
0	2747	532.856894714829	523
0	2748	532.856894714829	524
0	2749	534	523
0	2755	534.6787289013	524
0	2756	534.6787289013	525
0	2757	536	524
0	2763	536.302691896642	525
0	2764	536.302691896642	526
0	2768	536.60750978862	527
0	2769	536.60750978862	528
0	2773	537.297681762135	529
0	2774	537.297681762135	530
0	2775	538	529
0	2781	538.657008598841	530
0	2782	538.657008598841	531
0	2783	540	530
0	2789	540.706998606793	531
0	2790	540.706998606793	532
0	2794	541.077748106941	533
0	2795	541.077748106941	534
0	2799	541.295307362788	535
0	2800	541.295307362788	536
0	2801	542	535
0	2807	543.469493249727	536
0	2808	543.469493249727	537
0	2812	543.747936464499	538
0	2813	543.747936464499	539
0	2814	544	538
0	2820	545.67246100788	539
0	2821	545.67246100788	540
0	2822	546	539
0	2825	548	538
0	2831	548.253719852911	539
0	2832	548.253719852911	540
0	2836	548.990463912141	541
0	2837	548.990463912141	542
0	2838	550	541
0	2844	550.588363510053	542
0	2845	550.588363510053	543
0	2849	551.098218846339	544
0	2850	551.098218846339	545
0	2851	552	544
0	2854	554	543
0	2860	554.513563785834	544
0	2861	554.513563785834	545
0	2862	556	544
0	2868	556.00964836855	545
0	2869	556.00964836855	546
0	2873	556.845606840564	547
0	2874	556.845606840564	548
0	2875	558	547
0	2881	559.116058772319	548
0	2882	559.116058772319	549
0	2886	559.93734509928	550
0	2887	559.93734509928	551
0	2888	560	550
0	2891	562	549
0	2897	562.267365757704	550
0	2898	562.267365757704	551
0	2902	562.478933552857	552
0	2903	562.478933552857	553
0	2904	564	552
0	2907	566	551
0	2913	566.255681531804	552
0	2914	566.255681531804	553
0	2918	566.729595326809	554
0	2919	566.729595326809	555
0	2920	568	554
0	2926	568.001559581913	555
0	2927	568.001559581913	556
0	2928	570	555
0	2934	570.283596333182	556
0	2935	570.283596333182	557
0	2939	571.549303982766	558
0	2940	571.549303982766	559
0	2941	572	558
0	2944	574	557
0	2950	574.47015368499	558
0	2951	574.47015368499	559
0	2955	574.496247282011	560
0	2956	574.496247282011	561
0	2960	575.954201209677	562
0	2961	575.954201209677	563
0	2962	576	562
0	2968	577.649129975211	563
0	2969	577.649129975211	564
0	2970	578	563
0	2976	578.993159177194	564
0	2977	578.993159177194	565
0	2981	579.919879852307	566
0	2982	579.919879852307	567
0	2983	580	566
0	2989	581.212316292443	567
0	2990	581.212316292443	568
0	2991	582	567
0	2997	583.888847286965	568
0	2998	583.888847286965	569
0	2999	584	568
0	3005	584.724739827496	569
0	3006	584.724739827496	570
0	3010	585.772706290167	571
0	3011	585.772706290167	572
0	3012	586	571
0	3018	587.312149719011	572
0	3019	587.312149719011	573
0	3023	587.765136007759	574
0	3024	587.765136007759	575
0	3025	588	574
0	3028	590	573
0	3034	591.594273539446	574
0	3035	591.594273539446	575
0	3036	592	574
0	3039	594	573
0	3045	594.62614334342	574
0	3046	594.62614334342	575
0	3050	595.681075952807	576
0	3051	595.681075952807	577
0	3052	596	576
0	3058	596.318226106106	577
0	3059	596.318226106106	578
0	3063	597.384475159447	579
0	3064	597.384475159447	580
0	3065	598	579
0	3068	600	578
0	3074	600.098935747979	579
0	3075	600.098935747979	580
0	3079	600.205591595127	581
0	3080	600.205591595127	582
0	3084	600.413990553477	583
0	3085	600.413990553477	584
0	3089	600.786106912951	585
0	3090	600.786106912951	586
0	3094	601.696196774476	587
0	3095	601.696196774476	588
0	3099	601.899560747659	589
0	3100	601.899560747659	590
0	3101	602	589
0	3107	602.692188088781	590
0	3108	602.692188088781	591
0	3112	603.05032607719	592
0	3113	603.05032607719	593
0	3114	604	592
0	3117	606	591
0	3123	606.272992518111	592
0	3124	606.272992518111	593
0	3128	606.982332752775	594
0	3129	606.982332752775	595
0	3130	608	594
0	3136	608.135235831341	595
0	3137	608.135235831341	596
0	3138	610	595
0	3144	610.887761317023	596