version 3
run MMc-32-20221127-11:38:41-21264
attr configname MMc
attr datetime 20221127-11:38:41
attr datetimef 20221127-113841
attr experiment MMc
attr inifile omnetpp.ini
attr iterationvars "$mean=uniform(0.5s, 1.5s), $dev=0.5*(uniform(0.5s, 1.5s)), $time=2.0, $num=5, $0=53542, $1=75335, $2=34542"
attr iterationvarsd mean=uniform(0.5s,_1.5s)/dev=0.5#2a(uniform(0.5s,_1.5s))/time=2.0/num=5/53542/75335/34542
attr iterationvarsf mean=uniform(0.5s,_1.5s),dev=0.5#2a(uniform(0.5s,_1.5s)),time=2.0,num=5,53542,75335,34542-
attr measurement "$mean=uniform(0.5s, 1.5s), $dev=0.5*(uniform(0.5s, 1.5s)), $time=2.0, $num=5, $0=53542, $1=75335, $2=34542"
attr network MMc
attr processid 21264
attr repetition 0
attr replication #0
attr resultdir results
attr runnumber 32
attr seedset 32
itervar dev "0.5*(uniform(0.5s, 1.5s))"
itervar mean "uniform(0.5s, 1.5s)"
itervar num 5
itervar time 2.0
config description "MMc module"
config network MMc
config MMc.source.interArrivalTime "truncnormal(uniform(0.5s, 1.5s), 0.5*(uniform(0.5s, 1.5s)))"
config MMc.mmc.serviceTime 2.0s
config MMc.mmc.c 5
config MMc.mmc.capacity 10000
config record-eventlog false
config **.scalar-recording true
config **.vector-recording true
config repeat 4
config seed-1-mt 53542
config seed-2-mt 75335
config seed-3-mt 34542
config output-vector-file MMc-5-2.0-results/0.vec
config output-scalar-file MMc-5-2.0-results/0.sca

vector 0 MMc.mmc queueLength:vector ETV
attr interpolationmode none
attr recordingmode vector
attr title "queue length"
vector 1 MMc.mmc util:vector ETV
attr interpolationmode none
attr recordingmode vector
attr title resources
0	0	0	0
0	16	12.752162451256	1
0	18	13.112023097171	2
0	19	13.112023097171	3
0	20	13.121225520748	2
0	21	13.121225520748	1
0	24	14.202372837846	0
0	30	14.618129058614	1
0	31	14.752162451256	0
0	34	15.113893874777	1
0	35	15.113893874777	2
0	36	15.121225520748	1
0	37	15.121225520748	0
0	100	26.561849942728	1
0	101	26.630832911279	0
0	107	27.166148824113	1
0	109	27.907509038799	2
0	110	27.907509038799	3
0	111	28.051381609918	2
0	112	28.051381609918	1
0	116	28.121178181529	2
0	117	28.121178181529	3
0	118	28.561849942728	2
0	120	28.630832911279	1
0	122	29.166148824113	0
0	125	29.740841091268	1
0	126	29.740841091268	2
0	127	30.051381609918	1
0	128	30.051381609918	0
0	132	30.137137993618	1
0	133	30.137137993618	2
0	134	30.561849942728	1
0	136	30.630832911279	0
0	139	30.928150689681	1
0	140	30.928150689681	2
0	141	31.166148824113	1
0	144	31.297959432048	2
0	145	31.297959432048	3
0	147	31.88388631196	4
0	148	31.88388631196	5
0	149	32.051381609918	4
0	150	32.051381609918	3
0	154	32.295320384986	4
0	155	32.295320384986	5
0	156	32.561849942728	4
0	158	32.630832911279	3
0	160	33.166148824113	2
0	163	33.210877280708	3
0	164	33.210877280708	4
0	166	33.977977244102	5
0	167	33.977977244102	6
0	168	34.051381609918	5
0	169	34.051381609918	4
0	173	34.356978042003	5
0	174	34.356978042003	6
0	175	34.561849942728	5
0	177	34.630832911279	4
0	179	35.166148824113	3
0	182	35.833273666823	4
0	183	35.833273666823	5
0	184	36.051381609918	4
0	185	36.051381609918	3
0	189	36.060923649799	4
0	190	36.060923649799	5
0	191	36.561849942728	4
0	193	36.630832911279	3
0	196	36.766568417706	4
0	197	36.766568417706	5
0	198	37.166148824113	4
0	201	37.252216439473	5
0	202	37.252216439473	6
0	203	38.051381609918	5
0	204	38.051381609918	4
0	208	38.077470654676	5
0	209	38.077470654676	6
0	210	38.561849942728	5
0	212	38.630832911279	4
0	215	38.96006076823	5
0	216	38.96006076823	6
0	217	39.166148824113	5
0	219	40.051381609918	4
0	220	40.051381609918	3
0	223	40.561849942728	2
0	226	40.595731268474	3
0	227	40.595731268474	4
0	228	40.630832911279	3
0	230	41.166148824113	2
0	233	41.853947048572	3
0	234	41.853947048572	4
0	235	42.051381609918	3
0	236	42.051381609918	2
0	240	42.281461462779	3
0	241	42.281461462779	4
0	242	42.561849942728	3
0	244	42.630832911279	2
0	246	43.166148824113	1
0	249	43.296184091755	2
0	250	43.296184091755	3
0	251	44.051381609918	2
0	252	44.051381609918	1
0	256	44.404967722583	2
0	257	44.404967722583	3
0	258	44.561849942728	2
0	260	44.630832911279	1
0	262	45.166148824113	0
0	265	45.660172200627	1
0	266	45.660172200627	2
0	267	46.051381609918	1
0	268	46.051381609918	0
0	282	47.79663441598	1
0	283	48.051381609918	0
0	289	48.514052718238	1
0	290	48.695384655078	0
0	296	49.299887990431	1
0	297	49.79663441598	0
0	300	49.906357172693	1
0	301	49.906357172693	2
0	302	50.051381609918	1
0	305	50.246279506266	2
0	306	50.246279506266	3
0	307	50.514052718238	2
0	309	50.695384655078	1
0	312	51.10483918247	2
0	313	51.10483918247	3
0	314	51.299887990431	2
0	316	51.79663441598	1
0	319	51.938988874513	2
0	320	51.938988874513	3
0	321	52.051381609918	2
0	324	52.205959635322	3
0	325	52.205959635322	4
0	326	52.514052718238	3
0	328	52.695384655078	2
0	331	52.883152908044	3
0	332	52.883152908044	4
0	333	53.299887990431	3
0	335	53.79663441598	2
0	337	54.051381609918	1
0	340	54.367691530199	2
0	341	54.367691530199	3
0	342	54.514052718238	2
0	344	54.695384655078	1
0	346	55.299887990431	0
0	349	55.457310135166	1
0	350	55.457310135166	2
0	351	55.79663441598	1
0	354	55.920732431046	2
0	355	55.920732431046	3
0	356	56.051381609918	2
0	358	56.514052718238	1
0	360	56.695384655078	0
0	363	57.145533120549	1
0	364	57.145533120549	2
0	365	57.299887990431	1
0	367	57.79663441598	0
0	373	58.423138109926	1
0	374	58.514052718238	0
0	380	59.039901866106	1
0	382	59.210113570802	2
0	383	59.210113570802	3
0	384	59.299887990431	2
0	387	59.538703493735	3
0	388	59.538703493735	4
0	389	59.79663441598	3
0	391	60.423138109926	2
0	393	60.514052718238	1
0	396	60.590333293602	2
0	397	60.590333293602	3
0	398	61.039901866106	2
0	401	61.071531655675	3
0	402	61.071531655675	4
0	403	61.299887990431	3
0	405	61.79663441598	2
0	408	62.18993438828	3
0	409	62.18993438828	4
0	410	62.423138109926	3
0	412	62.514052718238	2
0	415	62.839230049753	3
0	416	62.839230049753	4
0	417	63.039901866106	3
0	419	63.299887990431	2
0	421	63.79663441598	1
0	423	64.423138109926	0
0	429	64.812413622984	1
0	430	65.039901866106	0
0	464	71.421310805711	1
0	465	71.437590965925	0
0	485	74.7675286886	1
0	486	74.815858157132	0
0	492	75.28670596096	1
0	493	75.972940130218	0
0	527	80.984613765473	1
0	529	81.082226308179	2
0	530	81.082226308179	3
0	531	81.217709779825	2
0	532	81.217709779825	1
0	536	81.379214872315	2
0	537	81.379214872315	3
0	539	82.231868360334	4
0	540	82.231868360334	5
0	542	82.530302573854	6
0	543	82.530302573854	7
0	544	82.845629356777	6
0	545	82.845629356777	5
0	548	82.984613765473	4
0	551	83.058291070596	5
0	552	83.058291070596	6
0	553	83.217709779825	5
0	554	83.217709779825	4
0	558	84.24897496854	5
0	559	84.24897496854	6
0	561	84.66707734113	7
0	562	84.66707734113	8
0	563	84.845629356777	7
0	564	84.845629356777	6
0	567	84.984613765473	5
0	569	85.217709779825	4
0	570	85.217709779825	3
0	574	85.855032910323	4
0	575	85.855032910323	5
0	577	86.578031001213	6
0	578	86.578031001213	7
0	579	86.845629356777	6
0	580	86.845629356777	5
0	583	86.984613765473	4
0	585	87.217709779825	3
0	586	87.217709779825	2
0	590	88.184390306458	3
0	591	88.184390306458	4
0	592	88.845629356777	3
0	593	88.845629356777	2
0	596	88.984613765473	1
0	599	89.023293639599	2
0	600	89.023293639599	3
0	601	89.217709779825	2
0	602	89.217709779825	1
0	606	90.412718134753	2
0	607	90.412718134753	3
0	608	90.845629356777	2
0	609	90.845629356777	1
0	612	90.984613765473	0
0	622	92.751349846163	1
0	623	92.751349846163	2
0	624	92.845629356777	1
0	625	92.845629356777	0
0	646	96.742946220187	1
0	647	96.78170846159	0
0	681	102.736794304753	1
0	683	102.913827566677	2
0	684	102.913827566677	3
0	685	102.967345368506	2
0	686	102.967345368506	1
0	690	103.769235492537	2
0	691	103.769235492537	3
0	692	103.92684224849	2
0	693	103.92684224849	1
0	697	104.637981405021	2
0	698	104.637981405021	3
0	699	104.736794304753	2
0	701	104.967345368506	1
0	702	104.967345368506	0
0	716	106.764117414611	1
0	717	106.967345368506	0
0	723	107.778522608309	1
0	724	107.93727695987	0
0	758	113.37712310026	1
0	759	113.569244916105	0
0	765	113.682998919901	1
0	766	114.600703798654	0
0	772	115.165172876417	1
0	773	115.37712310026	0
0	786	117.052076692725	1
0	787	117.165172876417	0
0	800	118.809173883986	1
0	801	119.052076692725	0
0	807	119.766646381834	1
0	808	120.076802881361	0
0	828	123.922710120441	1
0	829	124.304569114836	0
0	849	126.691406122752	1
0	850	126.984764013654	0
0	856	127.756068532875	1
0	858	128.359873042129	2
0	859	128.359873042129	3
0	860	128.565474367332	2
0	861	128.565474367332	1
0	864	128.691406122752	0
0	870	129.606865932804	1
0	871	129.756068532875	0
0	919	137.558202044583	1
0	920	138.322825938481	0
0	926	138.74841693102	1
0	927	138.918989054762	0
0	968	145.671751287811	1
0	969	146.09127529768	0
0	975	146.281609208486	1
0	976	147.394286399088	0
0	982	147.556793728855	1
0	983	147.671751287811	0
0	993	149.052067818442	1
0	994	149.052067818442	2
0	996	149.321301490052	3
0	997	149.321301490052	4
0	998	149.394286399088	3
0	1000	149.556793728855	2
0	1002	149.671751287811	1
0	1004	150.540424549187	0
0	1010	150.852720331876	1
0	1012	150.883149505638	2
0	1013	150.883149505638	3
0	1014	151.394286399088	2
0	1017	151.4617214964	3
0	1018	151.4617214964	4
0	1019	151.556793728855	3
0	1021	151.671751287811	2
0	1024	151.831440241681	3
0	1025	151.831440241681	4
0	1026	152.540424549187	3
0	1028	152.852720331876	2
0	1031	153.001262806148	3
0	1032	153.001262806148	4
0	1033	153.394286399088	3
0	1036	153.556774933359	4
0	1037	153.556774933359	5
0	1038	153.556793728855	4
0	1040	153.671751287811	3
0	1043	154.415978307266	4
0	1044	154.415978307266	5
0	1045	154.540424549187	4
0	1047	154.852720331876	3
0	1050	155.301166310589	4
0	1051	155.301166310589	5
0	1052	155.394286399088	4
0	1054	155.556793728855	3
0	1056	155.671751287811	2
0	1059	156.076151201775	3
0	1060	156.076151201775	4
0	1061	156.540424549187	3
0	1063	156.852720331876	2
0	1065	157.394286399088	1
0	1067	157.556793728855	0
0	1073	157.753240594552	1
0	1074	158.540424549187	0
0	1080	159.22287687248	1
0	1081	159.394286399088	0
0	1094	160.727611202681	1
0	1096	160.973333860479	2
0	1097	160.973333860479	3
0	1098	161.22287687248	2
0	1100	161.394286399088	1
0	1103	161.751715027645	2
0	1104	161.751715027645	3
0	1105	161.876064797624	2
0	1106	161.876064797624	1
0	1109	162.727611202681	0
0	1129	165.801156436375	1
0	1131	166.045958901866	2
0	1132	166.045958901866	3
0	1133	166.141355819098	2
0	1134	166.141355819098	1
0	1138	167.150481194614	2
0	1139	167.150481194614	3
0	1140	167.178945938757	2
0	1141	167.178945938757	1
0	1144	167.801156436375	0
0	1192	177.06941354315	1
0	1193	177.692707462242	0
0	1199	177.814227503625	1
0	1201	178.024093881544	2
0	1202	178.024093881544	3
0	1204	178.646183408399	4
0	1205	178.646183408399	5
0	1206	178.725225521928	4
0	1207	178.725225521928	3
0	1210	179.06941354315	2
0	1212	179.692707462242	1
0	1214	179.814227503625	0
0	1234	183.15755620185	1
0	1235	183.24285555831	0
0	1241	183.841387905325	1
0	1242	184.362197714487	0
0	1290	194.863889226642	1
0	1291	195.266767397518	0
0	1297	195.825807660752	1
0	1298	196.213127943543	0
0	1304	196.477366766497	1
0	1306	196.70546028839	2
0	1307	196.70546028839	3
0	1308	196.863889226642	2
0	1310	197.266767397518	1
0	1313	197.529364481722	2
0	1314	197.529364481722	3
0	1315	197.825807660752	2
0	1317	198.213127943543	1
0	1319	198.477366766497	0
0	1322	198.544715826724	1
0	1323	198.544715826724	2
0	1324	198.863889226642	1
0	1326	199.266767397518	0
0	1329	199.393839653009	1
0	1330	199.393839653009	2
0	1331	199.825807660752	1
0	1333	200.213127943543	0
0	1336	200.260532640043	1
0	1337	200.260532640043	2
0	1338	200.477366766497	1
0	1340	200.863889226642	0
0	1346	201.600068811521	1
0	1347	201.825807660752	0
0	1350	202.119256882772	1
0	1351	202.119256882772	2
0	1352	202.213127943543	1
0	1354	202.477366766497	0
0	1360	203.486066377968	1
0	1361	203.600068811521	0
0	1381	206.564973690147	1
0	1382	206.610990057538	0
0	1416	212.955490889752	1
0	1417	213.398430281202	0
0	1423	213.416119096781	1
0	1424	214.815427213626	0
0	1430	214.838923243196	1
0	1431	214.955490889752	0
0	1441	216.349358755233	1
0	1442	216.349358755233	2
0	1443	216.815427213626	1
0	1445	216.838923243196	0
0	1451	216.966305769896	1
0	1453	217.941227092439	2
0	1454	217.941227092439	3
0	1455	218.342809103461	2
0	1456	218.342809103461	1
0	1459	218.815427213626	0
0	1479	221.234466965618	1
0	1480	221.248820840363	0
0	1500	224.199310962351	1
0	1502	224.648032290982	2
0	1503	224.648032290982	3
0	1504	224.679102747639	2
0	1505	224.679102747639	1
0	1508	225.269913114656	0
0	1514	225.897555717528	1
0	1515	226.199310962351	0
0	1525	227.238921189863	1
0	1526	227.238921189863	2
0	1527	227.269913114656	1
0	1529	227.897555717528	0
0	1549	230.927550263384	1
0	1550	230.995339338335	0
0	1556	231.457348214816	1
0	1557	231.985818243341	0
0	1563	232.158589676015	1
0	1564	232.927550263384	0
0	1584	236.120238673514	1
0	1585	236.33168394214	0
0	1591	237.400682920366	1
0	1592	237.573314487715	0
0	1609	239.55426066395	1
0	1610	239.55426066395	2
0	1611	239.573314487715	1
0	1613	240.693217515196	0
0	1619	241.031604564908	1
0	1621	241.145984208169	2
0	1622	241.145984208169	3
0	1623	241.503546841019	2
0	1624	241.503546841019	1
0	1627	241.573314487715	0
0	1630	241.64471420824	1
0	1631	241.64471420824	2
0	1633	242.349369874628	3
0	1634	242.349369874628	4
0	1635	242.693217515196	3
0	1637	243.031604564908	2
0	1639	243.503546841019	1
0	1640	243.503546841019	0
0	1647	244.357942974248	1
0	1648	244.693217515196	0
0	1651	244.701200442029	1
0	1652	244.701200442029	2
0	1653	245.031604564908	1
0	1656	245.462918608642	2
0	1657	245.462918608642	3
0	1658	245.503546841019	2
0	1659	245.503546841019	1
0	1662	246.357942974248	0
0	1696	252.504571536371	1
0	1697	252.663053799735	0
0	1703	253.609633731718	1
0	1704	253.753642552274	0
0	1710	254.497691130681	1
0	1711	254.504571536371	0
0	1717	255.073423817401	1
0	1718	255.609633731718	0
0	1724	256.059488007203	1
0	1725	256.497691130681	0
0	1731	256.841934069058	1
0	1732	257.073423817401	0
0	1745	258.663583695366	1
0	1746	258.841934069058	0
0	1752	259.166453027779	1
0	1754	259.186327272764	2
0	1755	259.186327272764	3
0	1757	259.246074268523	4
0	1758	259.246074268523	5
0	1760	259.566700281643	6
0	1761	259.566700281643	7
0	1762	260.080619997287	6
0	1763	260.080619997287	5
0	1767	260.483454754837	6
0	1768	260.483454754837	7
0	1769	260.663583695366	6
0	1771	260.841934069058	5
0	1774	261.116318018824	6
0	1775	261.116318018824	7
0	1776	261.166453027779	6
0	1779	261.752980288844	7
0	1780	261.752980288844	8
0	1781	262.080619997287	7
0	1782	262.080619997287	6
0	1785	262.663583695366	5
0	1788	262.835193608251	6
0	1789	262.835193608251	7
0	1790	262.841934069058	6
0	1792	263.166453027779	5
0	1795	263.248901652068	6
0	1796	263.248901652068	7
0	1797	264.080619997287	6
0	1798	264.080619997287	5
0	1801	264.663583695366	4
0	1803	264.841934069058	3
0	1806	265.011432568667	4
0	1807	265.011432568667	5
0	1808	265.166453027779	4
0	1811	265.821121330927	5
0	1812	265.821121330927	6
0	1813	266.080619997287	5
0	1814	266.080619997287	4
0	1817	266.663583695366	3
0	1819	266.841934069058	2
0	1821	267.166453027779	1
0	1824	267.550720439007	2
0	1825	267.550720439007	3
0	1826	268.080619997287	2
0	1827	268.080619997287	1
0	1830	268.663583695366	0
0	1836	268.944493460576	1
0	1837	269.166453027779	0
0	1899	279.310071680396	1
0	1900	280.261006827568	0
0	1906	280.841437371531	1
0	1907	280.98409050099	0
0	1948	288.304253262465	1
0	1949	288.391711754599	0
0	1955	289.464248425466	1
0	1956	289.661647926419	0
0	1976	292.769272110653	1
0	1977	293.150692558769	0
0	2011	298.699331742924	1
0	2012	298.831427008756	0
0	2025	299.981271273791	1
0	2026	300.699331742924	0
0	2032	301.166409847417	1
0	2033	301.569812515595	0
0	2039	301.859786805226	1
0	2040	301.981271273791	0
0	2046	302.993041539112	1
0	2047	303.166409847417	0
0	2067	305.936174939331	1
0	2068	305.977138732281	0
0	2074	307.111638197144	1
0	2075	307.691386757885	0
0	2109	313.34108031911	1
0	2110	313.631530199883	0
0	2116	314.296140383383	1
0	2117	314.671797767548	0
0	2137	317.868644526964	1
0	2138	317.954922509647	0
0	2158	320.921426517878	1
0	2159	321.026622424995	0
0	2179	325.052293068182	1
0	2180	325.145600878718	0
0	2186	325.692150755267	1
0	2187	326.428623995359	0
0	2193	326.682008892265	1
0	2194	327.052293068182	0
0	2214	330.051363506721	1
0	2215	330.378956106403	0
0	2249	335.619717834311	1
0	2250	335.897364310485	0
0	2284	340.9966039596	1
0	2286	341.869619861023	2
0	2287	341.869619861023	3
0	2288	342.268973457735	2
0	2289	342.268973457735	1
0	2292	342.724021448999	0
0	2319	346.414631338695	1
0	2320	346.768383830962	0
0	2326	347.146695461908	1
0	2328	347.722681579201	2
0	2329	347.722681579201	3
0	2330	348.28048017945	2
0	2331	348.28048017945	1
0	2334	348.414631338695	0
0	2340	348.813007275794	1
0	2341	349.146695461908	0
0	2344	349.262604555475	1
0	2345	349.262604555475	2
0	2347	350.238565274273	3
0	2348	350.238565274273	4
0	2349	350.28048017945	3
0	2350	350.28048017945	2
0	2353	350.414631338695	1
0	2355	350.813007275794	0
0	2361	351.324532119394	1
0	2362	352.28048017945	0
0	2389	356.206293695819	1
0	2391	356.243688693064	2
0	2392	356.243688693064	3
0	2393	356.608658715811	2
0	2394	356.608658715811	1
0	2397	357.250645121287	0
0	2403	357.404252709514	1
0	2404	358.206293695819	0
0	2445	365.089956010684	1
0	2446	365.305370306978	0
0	2452	366.180032035275	1
0	2453	366.38944184146	0
0	2459	366.876360266259	1
0	2460	367.089956010684	0
0	2463	367.101906127495	1
0	2464	367.101906127495	2
0	2465	367.305370306978	1
0	2467	368.180032035275	0
0	2477	369.064579952806	1
0	2478	369.064579952806	2
0	2479	369.089956010684	1
0	2481	369.305370306978	0
0	2484	369.536144019808	1
0	2485	369.536144019808	2
0	2486	370.180032035275	1
0	2489	370.255792562333	2
0	2490	370.255792562333	3
0	2491	370.959752310006	2
0	2492	370.959752310006	1
0	2495	371.089956010684	0
0	2498	371.269694077059	1
0	2499	371.269694077059	2
0	2500	371.305370306978	1
0	2502	372.180032035275	0
0	2505	372.581597787037	1
0	2506	372.581597787037	2
0	2508	372.763215649385	3
0	2509	372.763215649385	4
0	2510	372.959752310006	3
0	2511	372.959752310006	2
0	2514	373.089956010684	1
0	2516	373.305370306978	0
0	2519	373.825644039679	1
0	2520	373.825644039679	2
0	2521	374.180032035275	1
0	2524	374.704033265566	2
0	2525	374.704033265566	3
0	2526	374.959752310006	2
0	2527	374.959752310006	1
0	2531	375.085265368553	2
0	2532	375.085265368553	3
0	2533	375.089956010684	2
0	2535	375.305370306978	1
0	2537	376.180032035275	0
0	2540	376.895228838595	1
0	2541	376.895228838595	2
0	2542	376.959752310006	1
0	2543	376.959752310006	0
0	2557	378.955197461085	1
0	2558	378.959752310006	0
0	2578	381.740038327258	1
0	2580	382.084673885983	2
0	2581	382.084673885983	3
0	2582	382.392403341233	2
0	2583	382.392403341233	1
0	2587	382.434192120339	2
0	2588	382.434192120339	3
0	2590	382.700004738666	4
0	2591	382.700004738666	5
0	2593	383.020923372966	6
0	2594	383.020923372966	7
0	2595	383.043220836332	6
0	2596	383.043220836332	5
0	2600	383.727885425679	6
0	2601	383.727885425679	7
0	2602	383.740038327258	6
0	2604	384.392403341233	5
0	2605	384.392403341233	4
0	2609	384.746612322304	5
0	2610	384.746612322304	6
0	2611	385.043220836332	5
0	2612	385.043220836332	4
0	2616	385.09506077306	5
0	2617	385.09506077306	6
0	2618	385.740038327258	5
0	2620	386.392403341233	4
0	2621	386.392403341233	3
0	2624	387.043220836332	2
0	2625	387.043220836332	1
0	2629	387.192661319365	2
0	2630	387.192661319365	3
0	2631	387.740038327258	2
0	2634	388.014269224554	3
0	2635	388.014269224554	4
0	2636	388.392403341233	3
0	2637	388.392403341233	2
0	2640	389.043220836332	1
0	2641	389.043220836332	0
0	2645	389.207393400849	1
0	2646	389.207393400849	2
0	2647	389.740038327258	1
0	2649	390.392403341233	0
0	2655	390.489490942863	1
0	2656	391.043220836332	0
0	2690	396.295578765146	1
0	2691	396.507690479026	0
0	2697	396.655412667858	1
0	2699	397.709134295655	2
0	2700	397.709134295655	3
0	2701	397.77700150249	2
0	2702	397.77700150249	1
0	2705	398.295578765146	0
0	2711	398.585723954336	1
0	2712	398.655412667858	0
0	2732	401.952291891545	1
0	2733	402.054600224433	0
0	2739	402.490230671951	1
0	2740	402.83947315906	0
0	2746	403.659640485324	1
0	2748	403.919891588371	2
0	2749	403.919891588371	3
0	2750	403.952291891545	2
0	2752	404.054600224433	1
0	2754	404.490230671951	0
0	2760	405.177031337184	1
0	2761	405.659640485324	0
0	2816	416.694031265351	1
0	2817	416.988677114916	0
0	2858	423.393413015325	1
0	2859	423.928216325178	0
0	2865	424.495762756997	1
0	2866	425.370870908778	0
0	2879	426.17675070413	1
0	2880	426.495762756997	0
0	2883	427.14153415831	1
0	2884	427.14153415831	2
0	2885	427.370870908778	1
0	2887	427.428229918083	0
0	2907	430.261084469547	1
0	2908	430.514866815007	0
0	2914	431.542950464657	1
0	2915	432.009458230704	0
0	2921	432.099239163821	1
0	2922	432.261084469547	0
0	2942	435.284967114536	1
0	2943	435.744001041772	0
0	2949	435.769065620763	1
0	2950	436.781789430748	0
0	2956	436.929482256512	1
0	2957	437.284967114536	0
0	2960	437.547237463638	1
0	2961	437.547237463638	2
0	2962	437.744001041772	1
0	2964	437.769065620763	0
0	2967	438.169965189	1
0	2968	438.169965189	2
0	2970	438.537092346975	3
0	2971	438.537092346975	4
0	2972	438.781789430748	3
0	2974	438.929482256512	2
0	2976	439.284967114536	1
0	2979	439.717696314477	2
0	2980	439.717696314477	3
0	2981	439.744001041772	2
0	2983	439.769065620763	1
0	2986	440.666314147477	2
0	2987	440.666314147477	3
0	2988	440.781789430748	2
0	2990	440.929482256512	1
0	2992	441.284967114536	0
0	3026	446.959196447257	1
0	3027	446.966213662849	0
0	3040	448.385986593669	1
0	3041	448.959196447257	0
0	3061	451.48570178468	1
0	3062	451.854366398297	0
0	3068	452.300681903226	1
0	3069	453.44718992451	0
0	3082	454.297904442602	1
0	3083	454.300681903226	0
0	3089	455.717324046289	1
0	3090	456.161936833945	0
0	3103	457.089071054851	1
0	3104	457.717324046289	0
0	3124	460.394509598879	1
0	3125	460.648764587576	0
0	3131	461.110572815566	1
0	3132	461.256576526451	0
0	3187	472.942598831211	1
0	3188	473.280658508678	0
0	3194	473.385228695305	1
0	3195	474.38609821159	0
0	3201	474.680102083333	1
0	3202	474.942598831211	0
0	3257	484.142093577681	1
0	3258	484.433174090823	0
0	3264	485.32052615883	1
0	3265	485.57944925662	0
0	3285	488.069868728362	1
0	3286	488.158800995403	0
0	3292	489.094825778793	1
0	3293	489.690132864893	0
0	3299	489.906732904067	1
0	3300	490.069868728362	0
0	3334	495.549782010677	1
0	3335	495.913938008425	0
0	3362	500.871301061405	1
0	3363	501.131356025558	0
0	3383	503.381822308173	1
0	3385	503.806889172064	2
0	3386	503.806889172064	3
0	3387	504.786014826039	2
0	3388	504.786014826039	1
0	3392	504.829868128908	2
0	3393	504.829868128908	3
0	3394	505.090556482144	2
0	3395	505.090556482144	1
0	3398	505.381822308173	0
0	3401	505.735230320409	1
0	3402	505.735230320409	2
0	3404	506.525648729834	3
0	3405	506.525648729834	4
0	3406	506.786014826039	3
0	3407	506.786014826039	2
0	3410	507.090556482144	1
0	3411	507.090556482144	0
0	3418	507.809356835239	1
0	3419	508.786014826039	0
0	3439	511.76395744173	1
0	3440	512.567582780005	0
0	3474	518.145669310337	1
0	3475	518.360631428307	0
0	3481	519.029235142551	1
0	3482	519.190042729551	0
0	3488	519.593234822281	1
0	3489	520.145669310337	0
0	3495	520.422984586208	1
0	3496	521.029235142551	0
0	3499	521.178696719793	1
0	3500	521.178696719793	2
0	3501	521.190042729551	1
0	3503	521.593234822281	0
0	3506	522.074925912338	1
0	3507	522.074925912338	2
0	3508	522.145669310337	1
0	3511	522.392502613746	2
0	3512	522.392502613746	3
0	3513	522.422984586208	2
0	3515	523.029235142551	1
0	3517	523.190042729551	0
0	3520	523.406780955061	1
0	3521	523.406780955061	2
0	3522	523.593234822281	1
0	3524	524.145669310337	0
0	3530	525.011180897074	1
0	3531	525.029235142551	0
0	3572	531.969237680286	1
0	3573	532.08334260928	0
0	3579	532.631777527238	1
0	3580	532.887247929348	0
0	3600	535.891921919641	1
0	3601	536.036151845735	0
0	3607	537.059178453123	1
0	3608	537.455875212325	0
0	3628	540.096187845962	1
0	3629	540.601306982047	0
0	3649	543.008203447535	1
0	3650	544.4078151483	0
0	3670	547.229792917843	1
0	3671	547.328236793721	0
0	3726	556.833384248383	1
0	3727	557.289111531449	0
0	3747	560.993965198157	1
0	3748	561.271589613919	0
0	3754	561.503023159198	1
0	3755	562.014524823688	0
0	3761	562.697143824034	1
0	3763	562.701473775125	2
0	3764	562.701473775125	3
0	3765	562.993965198157	2
0	3768	563.209990920537	3
0	3769	563.209990920537	4
0	3770	563.271589613919	3
0	3772	563.503023159198	2
0	3775	563.638388961332	3
0	3776	563.638388961332	4
0	3777	564.014524823688	3
0	3780	564.670801835692	4
0	3781	564.670801835692	5
0	3782	564.697143824034	4
0	3784	564.993965198157	3
0	3786	565.271589613919	2
0	3788	565.503023159198	1
0	3790	566.014524823688	0
0	3793	566.340137730227	1
0	3794	566.340137730227	2
0	3795	566.697143824034	1
0	3797	566.993965198157	0
0	3800	567.263899179886	1
0	3801	567.263899179886	2
0	3802	567.271589613919	1
0	3804	567.503023159198	0
0	3807	567.718461850517	1
0	3808	567.718461850517	2
0	3809	568.014524823688	1
0	3811	568.697143824034	0
0	3831	572.232322870983	1
0	3832	572.368932924008	0
0	3866	577.648191143727	1
0	3867	577.749646771	0
0	3894	581.880305293088	1
0	3895	582.53643224886	0
0	3901	582.997267025111	1
0	3903	583.295434952732	2
0	3904	583.295434952732	3
0	3905	583.423385242569	2
0	3906	583.423385242569	1
0	3909	583.880305293088	0
0	3929	587.171519922562	1
0	3931	587.584750511312	2
0	3932	587.584750511312	3
0	3933	587.857191333639	2
0	3934	587.857191333639	1
0	3937	588.287813698121	0
0	3943	588.76208709738	1
0	3944	589.171519922562	0
0	3992	598.669257882659	1
0	3994	599.189646494708	2
0	3995	599.189646494708	3
0	3996	599.203781630889	2
0	3997	599.203781630889	1
0	4000	600.215252338644	0
0	4006	600.486754068733	1
0	4007	600.669257882659	0
0	4020	602.278835814887	1
0	4021	602.486754068733	0
0	4024	602.654172272936	1
0	4025	602.654172272936	2
0	4026	602.669257882659	1
0	4028	603.472692722321	0
0	4034	603.939519603377	1
0	4035	604.278835814887	0
0	4038	604.426244964318	1
0	4039	604.426244964318	2
0	4040	604.486754068733	1
0	4042	604.669257882659	0
0	4048	605.80477901493	1
0	4049	605.939519603377	0
0	4069	608.703789223694	1
0	4070	608.787167859166	0
0	4090	612.267362934582	1
0	4091	612.309582845895	0
0	4111	615.937871720048	1
0	4112	616.162126283393	0
0	4132	619.072267290329	1
0	4133	619.100150414165	0
0	4146	620.300884922354	1
0	4148	620.987392839248	2
0	4149	620.987392839248	3
0	4150	621.072267290329	2
0	4152	621.100150414165	1
0	4155	621.654110756958	2
0	4156	621.654110756958	3
0	4157	622.224972613174	2
0	4158	622.224972613174	1
0	4161	622.300884922354	0
0	4164	622.967380486644	1
0	4165	622.967380486644	2
0	4166	623.072267290329	1
0	4168	623.100150414165	0
0	4171	623.27963940532	1
0	4172	623.27963940532	2
0	4174	623.645927281715	3
0	4175	623.645927281715	4
0	4176	624.224972613174	3
0	4177	624.224972613174	2
0	4180	624.300884922354	1
0	4183	624.83281579878	2
0	4184	624.83281579878	3
0	4185	625.072267290329	2
0	4187	625.100150414165	1
0	4190	625.20594612546	2
0	4191	625.20594612546	3
0	4193	625.618396288324	4
0	4194	625.618396288324	5
0	4195	626.224972613174	4
0	4196	626.224972613174	3
0	4199	626.300884922354	2
0	4202	626.60763558183	3
0	4203	626.60763558183	4
0	4204	627.072267290329	3
0	4206	627.100150414165	2
0	4209	628.141737894361	3
0	4210	628.141737894361	4
0	4211	628.224972613174	3
0	4212	628.224972613174	2
0	4215	628.300884922354	1
0	4218	628.587937710169	2
0	4219	628.587937710169	3
0	4220	629.072267290329	2
0	4222	629.100150414165	1
0	4225	629.559198684253	2
0	4226	629.559198684253	3
0	4227	630.224972613174	2
0	4228	630.224972613174	1
0	4231	630.300884922354	0
0	4234	630.733150955797	1
0	4235	630.733150955797	2
0	4236	631.072267290329	1
0	4238	631.100150414165	0
0	4241	631.461174779164	1
0	4242	631.461174779164	2
0	4243	632.224972613174	1
0	4244	632.224972613174	0
0	4251	633.00281320667	1
0	4252	633.072267290329	0
0	4307	643.249329083186	1
0	4308	643.62527693223	0
0	4314	644.298793807413	1
0	4315	645.230458713574	0
0	4342	647.672664657754	1
0	4343	648.599089965437	0
0	4349	649.022682971044	1
0	4350	649.430390449653	0
0	4356	649.604389291739	1
0	4357	649.672664657754	0
0	4360	650.524230546919	1
0	4361	650.524230546919	2
0	4362	650.599089965437	1
0	4364	651.022682971044	0
0	4405	657.354670141904	1
0	4406	658.301898513803	0
0	4433	662.012325972498	1
0	4434	662.274876790359	0
0	4482	671.269185841968	1
0	4483	671.296128760474	0
0	4489	671.60815639122	1
0	4490	672.25935439086	0
0	4496	672.385459264592	1
0	4497	673.269185841968	0
0	4503	673.448430750195	1
0	4504	673.60815639122	0
0	4524	676.960188526975	1
0	4525	676.9993524003	0
0	4552	681.851331918785	1
0	4553	682.004939886317	0
0	4559	682.562827316645	1
0	4561	682.916396491261	2
0	4562	682.916396491261	3
0	4563	683.316436080479	2
0	4564	683.316436080479	1
0	4568	683.668710064651	2
0	4569	683.668710064651	3
0	4570	683.851331918785	2
0	4572	684.004939886317	1
0	4575	684.069241451621	2
0	4576	684.069241451621	3
0	4577	684.562827316645	2
0	4580	684.610788140274	3
0	4581	684.610788140274	4
0	4582	685.316436080479	3
0	4583	685.316436080479	2
0	4587	685.353285622906	3
0	4588	685.353285622906	4
0	4589	685.851331918785	3
0	4591	686.004939886317	2
0	4594	686.296458585271	3
0	4595	686.296458585271	4
0	4596	686.562827316645	3
0	4598	687.316436080479	2
0	4599	687.316436080479	1
0	4603	687.733977700988	2
0	4604	687.733977700988	3
0	4605	687.851331918785	2
0	4607	688.004939886317	1
0	4609	688.562827316645	0
0	4612	688.850838449727	1
0	4613	688.850838449727	2
0	4614	689.316436080479	1
0	4615	689.316436080479	0
0	4622	689.996286019263	1
0	4623	690.004939886317	0
0	4629	691.041769018512	1
0	4630	691.316436080479	0
0	4678	701.813140047565	1
0	4679	702.324709862414	0
0	4685	702.452999496129	1
0	4686	702.85149937394	0
0	4692	703.094759324706	1
0	4693	703.813140047565	0
0	4741	711.033547200961	1
0	4742	711.720329893986	0
0	4748	712.053269364703	1
0	4749	712.607732483901	0
0	4755	713.012700907128	1
0	4756	713.033547200961	0
0	4776	716.289404488048	1
0	4777	716.441093614875	0
0	4790	718.141073721471	1
0	4791	718.289404488048	0
0	4811	721.581422683625	1
0	4813	721.695731276128	2