version 3
run MMc-33-20221127-11:38:41-21264
attr configname MMc
attr datetime 20221127-11:38:41
attr datetimef 20221127-113841
attr experiment MMc
attr inifile omnetpp.ini
attr iterationvars "$mean=uniform(0.5s, 1.5s), $dev=0.5*(uniform(0.5s, 1.5s)), $time=2.0, $num=5, $0=45732, $1=35463, $2=67563"
attr iterationvarsd mean=uniform(0.5s,_1.5s)/dev=0.5#2a(uniform(0.5s,_1.5s))/time=2.0/num=5/45732/35463/67563
attr iterationvarsf mean=uniform(0.5s,_1.5s),dev=0.5#2a(uniform(0.5s,_1.5s)),time=2.0,num=5,45732,35463,67563-
attr measurement "$mean=uniform(0.5s, 1.5s), $dev=0.5*(uniform(0.5s, 1.5s)), $time=2.0, $num=5, $0=45732, $1=35463, $2=67563"
attr network MMc
attr processid 21264
attr repetition 1
attr replication #1
attr resultdir results
attr runnumber 33
attr seedset 33
itervar dev "0.5*(uniform(0.5s, 1.5s))"
itervar mean "uniform(0.5s, 1.5s)"
itervar num 5
itervar time 2.0
config description "MMc module"
config network MMc
config MMc.source.interArrivalTime "truncnormal(uniform(0.5s, 1.5s), 0.5*(uniform(0.5s, 1.5s)))"
config MMc.mmc.serviceTime 2.0s
config MMc.mmc.c 5
config MMc.mmc.capacity 10000
config record-eventlog false
config **.scalar-recording true
config **.vector-recording true
config repeat 4
config seed-1-mt 45732
config seed-2-mt 35463
config seed-3-mt 67563
config output-vector-file MMc-5-2.0-results/1.vec
config output-scalar-file MMc-5-2.0-results/1.sca

vector 0 MMc.mmc queueLength:vector ETV
attr interpolationmode none
attr recordingmode vector
attr title "queue length"
vector 1 MMc.mmc util:vector ETV
attr interpolationmode none
attr recordingmode vector
attr title resources
0	0	0	0
0	9	11.768693831647	1
0	10	12	0
0	86	26.833367065746	1
0	87	27.034832399039	0
0	121	32.864095090254	1
0	122	33.613456195483	0
0	128	34.04919635794	1
0	129	34.119561004916	0
0	149	38.173449835662	1
0	150	38.181446798187	0
0	198	47.276988263383	1
0	199	47.641276835594	0
0	205	48.148334621915	1
0	206	48.424385501967	0
0	219	49.911312484523	1
0	220	50.148334621915	0
0	223	50.272052475039	1
0	224	50.272052475039	2
0	225	50.424385501967	1
0	228	51.551491343949	2
0	229	51.551491343949	3
0	230	51.776043886901	2
0	231	51.776043886901	1
0	234	51.911312484523	0
0	275	59.446213890908	1
0	276	60.100487798805	0
0	282	60.449171469855	1
0	284	60.675963029042	2
0	285	60.675963029042	3
0	286	61.209919350503	2
0	287	61.209919350503	1
0	290	61.446213890908	0
0	293	62.026008888339	1
0	294	62.026008888339	2
0	295	62.100487798805	1
0	297	62.449171469855	0
0	300	62.527636062777	1
0	301	62.527636062777	2
0	302	63.209919350503	1
0	303	63.209919350503	0
0	324	65.974514011872	1
0	325	66.157170051809	0
0	359	71.694406230578	1
0	360	71.910048908868	0
0	464	92.792021945934	1
0	465	93.169928660757	0
0	478	94.644516811985	1
0	479	94.792021945934	0
0	485	95.25529043568	1
0	486	95.966061024488	0
0	492	96.072526600513	1
0	493	96.644516811985	0
0	510	98.287748040389	1
0	511	98.287748040389	2
0	512	98.644516811985	1
0	515	99.162538205223	2
0	516	99.162538205223	3
0	517	99.331915720749	2
0	518	99.331915720749	1
0	522	99.487823260328	2
0	523	99.487823260328	3
0	524	100.075217814714	2
0	525	100.075217814714	1
0	528	100.644516811985	0
0	531	101.23447655966	1
0	532	101.23447655966	2
0	533	101.331915720749	1
0	534	101.331915720749	0
0	538	101.964829514574	1
0	539	101.964829514574	2
0	540	102.075217814714	1
0	541	102.075217814714	0
0	555	103.658803031731	1
0	556	104.075217814714	0
0	562	104.206622422685	1
0	564	105.106181340345	2
0	565	105.106181340345	3
0	566	105.450956824035	2
0	567	105.450956824035	1
0	570	105.658803031731	0
0	573	105.851473497269	1
0	574	105.851473497269	2
0	575	106.075217814714	1
0	577	106.206622422685	0
0	580	107.146914738058	1
0	581	107.146914738058	2
0	582	107.450956824035	1
0	583	107.450956824035	0
0	590	107.945698371302	1
0	591	108.075217814714	0
0	597	108.321834792708	1
0	599	109.259835376074	2
0	600	109.259835376074	3
0	601	109.450956824035	2
0	602	109.450956824035	1
0	605	109.945698371302	0
0	639	114.2861585618	1
0	641	114.728065580339	2
0	642	114.728065580339	3
0	643	115.059757405623	2
0	644	115.059757405623	1
0	648	115.090425124007	2
0	649	115.090425124007	3
0	651	115.494185873544	4
0	652	115.494185873544	5
0	653	115.65298933811	4
0	654	115.65298933811	3
0	657	116.2861585618	2
0	659	117.059757405623	1
0	660	117.059757405623	0
0	664	117.247941793188	1
0	665	117.247941793188	2
0	666	117.65298933811	1
0	667	117.65298933811	0
0	671	118.159099231469	1
0	672	118.159099231469	2
0	673	118.2861585618	1
0	676	118.513685567986	2
0	677	118.513685567986	3
0	678	119.059757405623	2
0	679	119.059757405623	1
0	683	119.195461779725	2
0	684	119.195461779725	3
0	685	119.65298933811	2
0	686	119.65298933811	1
0	690	119.755613195858	2
0	691	119.755613195858	3
0	692	120.2861585618	2
0	694	121.059757405623	1
0	695	121.059757405623	0
0	699	121.145426561221	1
0	700	121.145426561221	2
0	701	121.65298933811	1
0	702	121.65298933811	0
0	709	122.585070089646	1
0	710	123.059757405623	0
0	716	123.475190048613	1
0	717	123.65298933811	0
0	744	128.070046756754	1
0	745	128.629066562429	0
0	779	135.095121133934	1
0	780	135.197019570631	0
0	814	140.863754764432	1
0	816	140.894604728249	2
0	817	140.894604728249	3
0	818	141.422298167529	2
0	819	141.422298167529	1
0	823	142.374972150493	2
0	824	142.374972150493	3
0	825	142.588433504611	2
0	826	142.588433504611	1
0	829	142.863754764432	0
0	839	144.539226123507	1
0	840	144.539226123507	2
0	841	144.588433504611	1
0	842	144.588433504611	0
0	849	146.168059742958	1
0	850	146.212429458906	0
0	954	165.325623410597	1
0	955	166.086897989287	0
0	961	166.299154476397	1
0	963	167.021779221548	2
0	964	167.021779221548	3
0	965	167.075231918571	2
0	966	167.075231918571	1
0	969	167.325623410597	0
0	972	167.928943102649	1
0	973	167.928943102649	2
0	974	168.086897989287	1
0	976	168.299154476397	0
0	979	168.652063442455	1
0	980	168.652063442455	2
0	981	169.075231918571	1
0	982	169.075231918571	0
0	989	169.467682472251	1
0	990	170.086897989287	0
0	1031	176.550160657604	1
0	1032	176.678193787635	0
0	1052	179.35351054262	1
0	1053	179.445545696345	0
0	1094	188.04171117315	1
0	1095	188.301446094159	0
0	1101	188.357862204463	1
0	1102	188.875972384218	0
0	1108	189.558162233763	1
0	1109	190.04171117315	0
0	1122	191.265280255824	1
0	1123	191.558162233763	0
0	1126	191.947641347565	1
0	1127	191.947641347565	2
0	1128	192.04171117315	1
0	1130	193.040579974937	0
0	1136	193.079764008494	1
0	1137	193.265280255824	0
0	1157	195.57594779122	1
0	1158	196.259506407263	0
0	1164	196.34630328899	1
0	1165	197.085063149187	0
0	1171	197.458039808177	1
0	1172	197.57594779122	0
0	1175	198.125840864746	1
0	1176	198.125840864746	2
0	1177	198.259506407263	1
0	1179	198.34630328899	0
0	1220	205.435328860964	1
0	1222	205.915565472037	2
0	1223	205.915565472037	3
0	1224	206.066367735054	2
0	1225	206.066367735054	1
0	1228	207.100885688711	0
0	1234	207.231316902496	1
0	1235	207.435328860964	0
0	1262	211.406436146797	1
0	1263	211.45105582204	0
0	1269	212.551215466135	1
0	1270	212.738546687458	0
0	1276	213.331454676657	1
0	1277	213.406436146797	0
0	1304	218.173831714822	1
0	1305	218.745790343382	0
0	1346	227.133553453473	1
0	1347	227.620717907288	0
0	1388	235.277884665306	1
0	1389	235.312247893771	0
0	1430	243.639912488557	1
0	1432	243.915494885177	2
0	1433	243.915494885177	3
0	1434	244.071284234164	2
0	1435	244.071284234164	1
0	1439	244.632487423263	2
0	1440	244.632487423263	3
0	1441	244.784180901334	2
0	1442	244.784180901334	1
0	1445	245.639912488557	0
0	1448	245.862181116766	1
0	1449	245.862181116766	2
0	1450	246.071284234164	1
0	1451	246.071284234164	0
0	1479	249.703719756544	1
0	1480	250.672869388715	0
0	1542	260.53267252073	1
0	1543	261.25086479117	0
0	1549	261.874569804866	1
0	1550	262.222231957865	0
0	1584	267.611148942703	1
0	1585	267.723959164377	0
0	1612	271.810577786298	1
0	1613	272.186541153583	0
0	1619	272.807460916044	1
0	1620	272.846841991362	0
0	1626	273.163941164951	1
0	1628	273.319087828206	2
0	1629	273.319087828206	3
0	1630	273.810577786298	2
0	1633	273.936706009061	3
0	1634	273.936706009061	4
0	1635	274.186541153583	3
0	1637	274.807460916044	2
0	1639	274.846841991362	1
0	1641	275.163941164951	0
0	1647	275.834742450336	1
0	1648	276.186541153583	0
0	1682	281.827997199066	1
0	1683	282.475217389902	0
0	1731	292.035451592204	1
0	1732	292.414433084003	0
0	1752	295.410122955875	1
0	1753	295.723939023006	0
0	1773	298.312113522222	1
0	1774	298.661178248258	0
0	1780	298.948037391997	1
0	1781	300.071898535207	0
0	1787	300.301055371361	1
0	1788	300.312113522222	0
0	1808	302.895302685076	1
0	1809	303.946155107921	0
0	1815	304.491876728945	1
0	1816	304.750075163766	0
0	1836	307.3063674473	1
0	1838	308.247238793506	2
0	1839	308.247238793506	3
0	1840	308.348200137213	2
0	1841	308.348200137213	1
0	1844	308.58027212047	0
0	1850	308.711311712465	1
0	1851	309.3063674473	0
0	1854	309.727047783009	1
0	1855	309.727047783009	2
0	1857	309.870366149273	3
0	1858	309.870366149273	4
0	1859	310.348200137213	3
0	1860	310.348200137213	2
0	1863	310.58027212047	1
0	1865	310.711311712465	0
0	1868	310.950542879059	1
0	1869	310.950542879059	2
0	1871	311.157633392525	3
0	1872	311.157633392525	4
0	1873	311.3063674473	3
0	1876	312.111916299749	4
0	1877	312.111916299749	5
0	1878	312.348200137213	4
0	1879	312.348200137213	3
0	1882	312.58027212047	2
0	1884	312.711311712465	1
0	1887	312.860532323659	2
0	1888	312.860532323659	3
0	1889	313.3063674473	2
0	1892	313.595812862159	3
0	1893	313.595812862159	4
0	1894	314.348200137213	3
0	1895	314.348200137213	2
0	1898	314.58027212047	1
0	1900	314.711311712465	0
0	1903	315.072442944558	1
0	1904	315.072442944558	2
0	1905	315.3063674473	1
0	1908	316.185930650828	2
0	1909	316.185930650828	3
0	1910	316.348200137213	2
0	1911	316.348200137213	1
0	1914	316.58027212047	0
0	1920	317.144218018842	1
0	1921	317.3063674473	0
0	1941	320.678309954277	1
0	1942	321.026611824707	0
0	1976	326.356741556493	1
0	1977	326.872587059489	0
0	1983	327.33146825008	1
0	1984	327.346974937361	0
0	1990	327.974713467041	1
0	1991	328.356741556493	0
0	2011	331.52926431497	1
0	2012	331.654646627794	0
0	2053	337.775786496821	1
0	2054	338.203926404695	0
0	2193	364.004231725024	1
0	2194	364.188078793196	0
0	2249	376.707864344452	1
0	2250	376.841068322964	0
0	2326	393.084089394663	1
0	2327	393.377445080113	0
0	2333	393.629218920821	1
0	2335	394.046851988384	2
0	2336	394.046851988384	3
0	2337	394.155125801717	2
0	2338	394.155125801717	1
0	2342	394.845651070883	2
0	2343	394.845651070883	3
0	2344	395.084089394663	2
0	2346	395.377445080113	1
0	2348	395.629218920821	0
0	2382	400.945193514887	1
0	2383	401.154983212121	0
0	2417	406.766962434415	1
0	2419	407.987224216576	2
0	2420	407.987224216576	3
0	2421	408.018328427389	2
0	2422	408.018328427389	1
0	2425	408.684492696133	0
0	2487	418.647194199192	1
0	2488	419.339027242675	0
0	2494	419.741688561876	1
0	2495	420.194435393474	0
0	2529	426.100796766471	1
0	2530	426.175291543676	0
0	2578	435.450043623383	1
0	2579	435.50405708082	0
0	2585	436.649379247835	1
0	2586	437.276406020036	0
0	2599	438.58991121682	1
0	2600	438.649379247835	0
0	2603	438.786104353306	1
0	2604	438.786104353306	2
0	2605	439.276406020036	1
0	2608	439.549279743481	2
0	2609	439.549279743481	3
0	2610	439.843858219011	2
0	2611	439.843858219011	1
0	2615	440.47750876524	2
0	2616	440.47750876524	3
0	2617	440.58991121682	2
0	2619	440.649379247835	1
0	2621	441.276406020036	0
0	2624	441.313679590949	1
0	2625	441.313679590949	2
0	2626	441.843858219011	1
0	2627	441.843858219011	0
0	2683	452.865441731417	1
0	2684	453.693274024242	0
0	2690	454.162650319624	1
0	2691	454.322843352731	0
0	2704	455.953239501303	1
0	2705	456.162650319624	0
0	2711	456.700665258059	1
0	2712	456.946829007755	0
0	2718	457.030870407021	1
0	2720	457.112072248146	2
0	2721	457.112072248146	3
0	2722	457.953239501303	2
0	2724	458.162650319624	1
0	2727	458.51893960948	2
0	2728	458.51893960948	3
0	2729	458.700665258059	2
0	2731	458.946829007755	1
0	2733	459.030870407021	0
0	2736	459.85015682552	1
0	2737	459.85015682552	2
0	2738	459.953239501303	1
0	2740	460.162650319624	0
0	2746	460.816167784034	1
0	2747	460.946829007755	0
0	2753	461.331712392111	1
0	2755	461.699489518038	2
0	2756	461.699489518038	3
0	2757	461.953239501303	2
0	2759	462.162650319624	1
0	2762	462.348588983554	2
0	2763	462.348588983554	3
0	2764	462.816167784034	2
0	2766	462.946829007755	1
0	2768	463.331712392111	0
0	2771	463.439554438336	1
0	2772	463.439554438336	2
0	2773	463.953239501303	1
0	2776	463.975717432045	2
0	2777	463.975717432045	3
0	2778	464.162650319624	2
0	2780	464.816167784034	1
0	2782	464.946829007755	0
0	2785	465.049113972519	1
0	2786	465.049113972519	2
0	2788	465.147559282911	3
0	2789	465.147559282911	4
0	2790	465.331712392111	3
0	2792	465.953239501303	2
0	2794	466.162650319624	1
0	2797	466.397512415081	2
0	2798	466.397512415081	3
0	2799	466.816167784034	2
0	2801	466.946829007755	1
0	2803	467.331712392111	0
0	2809	468.11583216578	1
0	2810	468.162650319624	0
0	2844	475.439237301313	1
0	2845	475.541773776036	0
0	2865	478.059146938154	1
0	2866	478.880334930608	0
0	2872	479.172711569131	1
0	2873	479.82966718933	0
0	2893	482.675190827071	1
0	2894	482.736866834726	0
0	2914	486.28582372924	1
0	2915	486.846465648607	0
0	2928	487.941574168939	1
0	2929	488.28582372924	0
0	2932	488.696614613876	1
0	2933	488.696614613876	2
0	2934	488.846465648607	1
0	2936	489.307551977997	0
0	2984	496.949723632865	1
0	2985	497.685580064297	0
0	2998	498.7370954652	1
0	2999	498.949723632865	0
0	3005	500.076605642718	1
0	3006	500.412048725814	0
0	3026	503.247593612267	1
0	3027	503.896403756286	0
0	3033	504.084643525445	1
0	3034	504.51323369531	0
0	3040	504.705060087799	1
0	3042	505.112260110772	2
0	3043	505.112260110772	3
0	3044	505.247593612267	2
0	3046	505.896403756286	1
0	3048	506.084643525445	0
0	3051	506.137209017958	1
0	3052	506.137209017958	2
0	3053	506.51323369531	1
0	3056	506.703300459818	2
0	3057	506.703300459818	3
0	3058	506.705060087799	2
0	3060	507.247593612267	1
0	3062	507.896403756286	0
0	3068	508.185620053857	1
0	3069	508.51323369531	0
0	3075	508.84147618618	1
0	3076	509.247593612267	0
0	3103	513.511193639745	1
0	3104	514.293774635057	0
0	3166	524.049035806399	1
0	3167	524.574892494402	0
0	3173	524.730334094863	1
0	3174	525.240951638736	0
0	3180	525.600046439544	1
0	3182	525.644717706027	2
0	3183	525.644717706027	3
0	3184	526.049035806399	2
0	3187	526.188220567977	3
0	3188	526.188220567977	4
0	3189	526.574892494402	3
0	3191	526.730334094863	2
0	3193	527.240951638736	1
0	3196	527.34865926711	2
0	3197	527.34865926711	3
0	3198	527.600046439544	2
0	3200	528.049035806399	1
0	3203	528.29219061315	2
0	3204	528.29219061315	3
0	3205	528.574892494402	2
0	3207	528.730334094863	1
0	3209	529.240951638736	0
0	3212	529.405606560373	1
0	3213	529.405606560373	2
0	3214	529.600046439544	1
0	3216	530.049035806399	0
0	3219	530.46278211758	1
0	3220	530.46278211758	2
0	3221	530.574892494402	1
0	3223	530.730334094863	0
0	3236	532.240714295837	1
0	3237	532.574892494402	0
0	3264	537.071605064889	1
0	3265	537.13032554861	0
0	3285	540.439916568341	1
0	3286	540.523885549907	0
0	3299	541.902180902681	1
0	3301	542.408340720913	2
0	3302	542.408340720913	3
0	3303	542.439916568341	2
0	3305	542.523885549907	1
0	3307	543.774808667266	0
0	3355	550.576492173996	1
0	3356	550.580136355858	0
0	3362	551.632933638629	1
0	3363	551.954181585124	0
0	3369	552.262193569722	1
0	3370	552.576492173996	0
0	3390	555.195330263887	1
0	3391	555.715796684326	0
0	3411	557.947935198086	1
0	3412	558.639792510446	0
0	3418	558.91124287157	1
0	3419	559.420272313373	0
0	3453	566.224563327327	1
0	3454	566.762535582172	0
0	3467	568.183659635016	1
0	3468	568.224563327327	0
0	3474	569.269146173596	1
0	3475	569.526235284814	0
0	3495	572.09958775464	1
0	3496	572.282300055111	0
0	3502	573.059815632618	1
0	3503	573.696684014895	0
0	3530	576.760233214102	1
0	3531	577.470696835522	0
0	3537	577.528077444287	1
0	3538	578.251926048383	0
0	3544	578.411235001786	1
0	3545	578.760233214102	0
0	3572	582.896596344852	1
0	3574	583.861685885171	2
0	3575	583.861685885171	3
0	3576	584.054475197799	2
0	3577	584.054475197799	1
0	3580	584.272842892203	0
0	3586	584.692868505897	1
0	3587	584.896596344852	0
0	3614	588.934101914957	1
0	3616	589.58420716854	2
0	3617	589.58420716854	3
0	3619	590.050456853929	4
0	3620	590.050456853929	5
0	3621	590.149302912685	4
0	3622	590.149302912685	3
0	3625	590.701831547523	2
0	3626	590.701831547523	1
0	3630	590.706835164427	2
0	3631	590.706835164427	3
0	3632	590.934101914957	2
0	3635	591.321189057892	3
0	3636	591.321189057892	4
0	3637	592.149302912685	3
0	3638	592.149302912685	2
0	3642	592.350372872929	3
0	3643	592.350372872929	4
0	3645	592.388088910579	5
0	3646	592.388088910579	6
0	3647	592.701831547523	5
0	3648	592.701831547523	4
0	3651	592.934101914957	3
0	3653	594.149302912685	2
0	3654	594.149302912685	1
0	3658	594.63687094803	2
0	3659	594.63687094803	3
0	3660	594.701831547523	2
0	3661	594.701831547523	1
0	3664	594.934101914957	0
0	3667	595.496669617206	1
0	3668	595.496669617206	2
0	3669	596.149302912685	1
0	3670	596.149302912685	0
0	3674	596.226569191767	1
0	3675	596.226569191767	2
0	3676	596.701831547523	1
0	3677	596.701831547523	0
0	3684	597.489795382286	1
0	3685	598.149302912685	0
0	3705	600.678852194538	1
0	3706	601.289846554011	0
0	3712	601.580258702514	1
0	3713	602.09023457125	0
0	3719	602.337155365993	1
0	3720	602.678852194538	0
0	3782	613.809634494417	1
0	3783	614.380434615518	0
0	3789	614.682295888086	1
0	3790	615.05919784804	0
0	3824	620.445411213219	1
0	3825	621.120487279366	0
0	3845	623.998709846309	1
0	3846	624.330405047767	0
0	3880	630.999287917322	1
0	3881	631.396898867178	0
0	3887	632.038797150497	1
0	3888	632.528575463972	0
0	3922	638.375260276563	1
0	3923	638.45580231936	0
0	3929	638.833279684174	1
0	3930	639.199203822872	0
0	3971	647.293759217215	1
0	3973	647.656724201263	2
0	3974	647.656724201263	3
0	3975	647.729195255223	2
0	3976	647.729195255223	1
0	3980	648.867242219732	2
0	3981	648.867242219732	3
0	3982	648.879244451066	2
0	3983	648.879244451066	1
0	3986	649.293759217215	0
0	4006	652.906910382161	1
0	4007	653.219596263008	0
0	4020	654.844989382975	1
0	4021	654.906910382161	0
0	4027	655.391364211613	1
0	4028	655.60741723817	0
0	4034	655.922723132949	1
0	4036	656.254266832841	2
0	4037	656.254266832841	3
0	4038	656.844989382975	2
0	4040	656.906910382161	1
0	4042	657.391364211613	0
0	4048	657.643186399483	1
0	4049	657.922723132949	0
0	4069	660.594885222615	1
0	4070	661.0560282898	0
0	4087	662.935544762331	1
0	4088	662.935544762331	2
0	4089	663.0560282898	1
0	4091	664.481466862144	0
0	4097	664.763281917522	1
0	4098	664.900416661017	0
0	4132	670.415614833435	1
0	4134	671.30051629943	2
0	4135	671.30051629943	3
0	4136	671.563886862708	2
0	4137	671.563886862708	1
0	4141	671.59745079405	2
0	4142	671.59745079405	3
0	4143	672.000175456453	2
0	4144	672.000175456453	1
0	4147	672.415614833435	0
0	4195	681.411829112836	1
0	4196	681.662745093456	0
0	4216	685.295355777852	1
0	4217	685.649864151636	0
0	4223	686.775047840936	1
0	4224	686.887043422888	0
0	4237	688.322683835715	1
0	4238	688.775047840936	0
0	4244	689.373249931159	1
0	4245	689.426202646194	0
0	4272	693.959255823455	1
0	4274	694.060794355195	2
0	4275	694.060794355195	3
0	4277	694.329919176405	4
0	4278	694.329919176405	5
0	4279	694.521145496189	4
0	4280	694.521145496189	3
0	4284	694.543010270377	4
0	4285	694.543010270377	5
0	4286	694.826765380612	4
0	4287	694.826765380612	3
0	4290	695.959255823455	2
0	4293	696.077853001568	3
0	4294	696.077853001568	4
0	4295	696.521145496189	3
0	4296	696.521145496189	2
0	4299	696.826765380612	1
0	4300	696.826765380612	0
0	4304	697.124375589319	1
0	4305	697.124375589319	2
0	4307	697.954829559658	3
0	4308	697.954829559658	4
0	4309	697.959255823455	3
0	4311	698.521145496189	2
0	4312	698.521145496189	1
0	4316	698.723391595125	2
0	4317	698.723391595125	3
0	4318	698.826765380612	2
0	4319	698.826765380612	1
0	4323	699.677998775045	2
0	4324	699.677998775045	3
0	4326	699.887851397632	4
0	4327	699.887851397632	5
0	4328	699.959255823455	4
0	4331	700.29846231688	5
0	4332	700.29846231688	6
0	4333	700.521145496189	5
0	4334	700.521145496189	4
0	4337	700.826765380612	3
0	4338	700.826765380612	2
0	4341	701.959255823455	1
0	4344	702.465894793915	2
0	4345	702.465894793915	3
0	4346	702.521145496189	2
0	4347	702.521145496189	1
0	4350	702.826765380612	0
0	4356	703.226140712558	1
0	4358	703.632728750173	2
0	4359	703.632728750173	3
0	4360	703.959255823455	2
0	4362	704.521145496189	1
0	4363	704.521145496189	0
0	4377	706.335889555992	1
0	4378	706.521145496189	0
0	4419	712.702356343231	1
0	4420	712.993795942481	0
0	4447	717.97871798809	1
0	4448	718.292450061185	0
0	4475	721.98867850372	1
0	4476	722.645596281709	0
0	4482	723.267746971656	1
0	4483	723.810666891348	0
0	4524	731.074190489542	1
0	4525	731.343778192257	0
0	4531	732.170764534046	1
0	4533	732.545116585621	2
0	4534	732.545116585621	3
0	4535	732.570254145991	2
0	4536	732.570254145991	1
0	4539	733.074190489542	0
0	4545	733.647531782664	1
0	4546	734.170764534046	0
0	4549	734.439732589522	1
0	4550	734.439732589522	2
0	4551	734.570254145991	1
0	4552	734.570254145991	0
0	4566	736.48082278094	1
0	4567	736.570254145991	0
0	4573	737.114398769231	1
0	4575	737.272916177285	2
0	4576	737.272916177285	3
0	4578	738.015166159244	4
0	4579	738.015166159244	5
0	4580	738.189046905319	4
0	4581	738.189046905319	3
0	4584	738.48082278094	2
0	4586	738.570254145991	1
0	4589	738.880061099941	2
0	4590	738.880061099941	3
0	4591	739.114398769231	2
0	4594	739.359862799953	3
0	4595	739.359862799953	4
0	4596	740.189046905319	3
0	4597	740.189046905319	2
0	4600	740.48082278094	1
0	4602	740.570254145991	0
0	4605	741.098039833869	1
0	4606	741.098039833869	2
0	4607	741.114398769231	1
0	4610	741.544535214231	2
0	4611	741.544535214231	3
0	4612	742.189046905319	2
0	4613	742.189046905319	1
0	4617	742.323803572049	2
0	4618	742.323803572049	3
0	4620	742.325048395093	4
0	4621	742.325048395093	5
0	4623	742.3471307388	6
0	4624	742.3471307388	7
0	4625	742.48082278094	6
0	4627	742.570254145991	5
0	4630	742.89208710147	6
0	4631	742.89208710147	7
0	4632	743.114398769231	6
0	4634	744.189046905319	5
0	4635	744.189046905319	4
0	4638	744.48082278094	3
0	4640	744.570254145991	2
0	4643	744.624028920521	3
0	4644	744.624028920521	4
0	4645	745.114398769231	3
0	4648	745.38687440189	4
0	4649	745.38687440189	5
0	4650	746.189046905319	4
0	4651	746.189046905319	3
0	4655	746.273064050389	4
0	4656	746.273064050389	5
0	4657	746.48082278094	4
0	4659	746.570254145991	3
0	4661	747.114398769231	2
0	4664	747.472337486936	3
0	4665	747.472337486936	4
0	4666	748.189046905319	3
0	4667	748.189046905319	2
0	4670	748.48082278094	1
0	4672	748.570254145991	0
0	4675	748.627522027752	1
0	4676	748.627522027752	2
0	4677	749.114398769231	1
0	4680	749.459117016445	2
0	4681	749.459117016445	3
0	4682	750.189046905319	2
0	4683	750.189046905319	1
0	4686	750.48082278094	0
0	4692	750.885469865872	1
0	4693	751.114398769231	0
0	4713	754.556327207757	1
0	4714	754.826332179835	0
0	4720	755.333412191734	1
0	4721	756.259489401522	0
0	4738	758.170669947577	1
0	4739	758.170669947577	2
0	4740	758.259489401522	1
0	4743	758.875430441091	2
0	4744	758.875430441091	3
0	4745	758.948995552761	2
0	4746	758.948995552761	1
0	4749	759.640075890804	0
0	4755	759.850898870204	1
0	4756	760.259489401522	0
0	4790	767.914581602517	1
0	4791	768.57208266166	0
0	4797	768.67388457086	1
0	4798	769.301933029858	0
0	4804	769.812183585979	1
0	4805	769.914581602517	0
0	4825	772.584146035607	1
0	4826	772.793124863858	0
0	4832	773.476681572143	1
0	4833	774.112160234228	0
0	4839	774.162642103972	1
0	4840	774.584146035607	0
0	4846	775.158645796085	1
0	4847	775.476681572143	0
0	4860	777.105689921164	1
0	4861	777.158645796085	0
0	4881	779.792285866464	1
0	4883	780.530847052175	2
0	4884	780.530847052175	3
0	4886	780.719295485822	4
0	4887	780.719295485822	5
0	4888	781.569951303672	4
0	4889	781.569951303672	3
0	4892	781.692043506433	2
0	4893	781.692043506433	1
0	4896	781.792285866464	0
0	4899	782.435108424712	1
0	4900	782.435108424712	2
0	4901	783.569951303672	1
0	4902	783.569951303672	0
0	4944	790.558854548796	1
0	4945	790.608940825152	0
0	4951	791.560115734114	1
0	4952	791.611327837101	0
0	4958	792.254569746387	1
0	4959	792.558854548796	0
0	4965	792.979201863076	1
0	4966	793.560115734114	0
0	4972	793.72207443183	1
0	4973	794.254569746387	0
0	4986	795.707754696347	1
0	4987	795.72207443183	0
0	4993	796.675269790351	1
0	4994	797.018236344067	0
0	5014	800.331226397103	1
0	5015	800.367893531749	0
0	5021	801.029456842073	1
0	5022	801.38602120606	0
0	5028	801.422270722495	1
0	5029	802.331226397103	0
0	5035	802.866856906189	1
0	5036	803.029456842073	0
0	5049	804.846516498507	1
0	5050	804.866856906189	0
0	5056	805.784242900316	1
0	5057	806.20660965827	0
0	5063	806.547030402337	1
0	5064	806.846516498507	0
0	5084	809.932584266073	1
0	5085	810.007135148084	0
0	5091	811.141225512214	1
0	5092	811.625685558526	0
0	5105	812.665294655934	1
0	5106	813.141225512214	0
0	5109	813.241653969555	1
0	5110	813.241653969555	2
0	5111	813.625685558526	1
0	5113	814.092790704133	0
0	5119	814.215117338868	1
0	5120	814.665294655934	0
0	5123	814.996779853204	1
0	5124	814.996779853204	2
0	5125	815.141225512214	1
0	5127	815.625685558526	0
0	5130	815.850936400894	1
0	5131	815.850936400894	2
0	5132	816.092790704133	1
0	5134	816.215117338868	0
0	5147	817.921490609335	1
0	5148	818.092790704133	0
0	5154	818.677463265521	1
0	5155	819.23736277072	0
0	5175	821.992650169786	1
0	5176	822.318674013143	0
0	5182	822.482361710429	1
0	5183	823.163485767498	0
0	5189	823.972545627971	1
0	5190	823.992650169786	0
0	5238	833.66645610126	1
0	5239	834.047245206687	0
0	5273	838.85414197443	1
0	5274	839.312608211088	0
0	5315	845.167199015903	1
0	5316	845.514921243534	0
0	5336	848.687029920159	1
0	5337	849.298163213774	0
0	5343	849.321059280858	1
0	5344	849.351718110023	0
0	5350	850.108114799097	1
0	5351	850.687029920159	0
0	5371	852.969322985288	1
0	5372	853.484049899138	0
0	5399	857.087994588116	1
0	5400	857.270609999013	0
0	5406	858.049376602859	1
0	5407	858.662763974839	0
0	5413	859.001983752338	1
0	5414	859.087994588116	0
0	5420	859.670321594688	1
0	5421	860.049376602859	0
0	5469	868.706074148917	1
0	5470	869.740079513763	0
0	5476	870.052235091961	1
0	5477	870.536351327037	0
0	5511	875.7818150686	1
0	5512	876.195745801905	0
0	5525	876.818441310753	1
0	5526	877.7818150686	0
0	5529	878.107282825413	1
0	5530	878.107282825413	2
0	5531	878.195745801905	1
0	5533	878.517745370913	0
0	5567	883.809521511718	1
0	5568	884.279873169282	0
0	5588	887.739216772348	1
0	5589	888.066241887435	0
0	5595	888.181504594653	1
0	5596	888.395245326978	0
0	5630	895.119916374284	1
0	5632	895.659176046973	2
0	5633	895.659176046973	3
0	5634	895.896696283669	2
0	5635	895.896696283669	1
0	5639	896.826133463815	2
0	5640	896.826133463815	3
0	5641	896.863451130948	2
0	5642	896.863451130948	1
0	5645	897.119916374284	0
0	5707	907.605870343428	1
0	5709	907.903235858979	2
0	5710	907.903235858979	3
0	5711	907.990970018838	2
0	5712	907.990970018838	1
0	5716	908.618601247275	2
0	5717	908.618601247275	3
0	5719	908.874427581863	4
0	5720	908.874427581863	5
0	5721	909.058268161325	4
0	5722	909.058268161325	3
0	5725	909.605870343428	2
0	5727	909.990970018838	1
0	5728	909.990970018838	0
0	5732	910.249048960853	1
0	5733	910.249048960853	2
0	5734	911.058268161325	1
0	5735	911.058268161325	0
0	5739	911.192946768438	1
0	5740	911.192946768438	2
0	5741	911.605870343428	1
0	5743	911.990970018838	0
0	5763	915.086520137457	1
0	5764	915.115252183816	0
0	5770	915.754944532736	1
0	5772	916.306277681079	2
0	5773	916.306277681079	3
0	5774	916.381003711313	2
0	5775	916.381003711313	1
0	5778	917.086520137457	0
0	5784	917.649942108043	1
0	5785	917.754944532736	0
0	5788	918.184300689481	1
0	5789	918.184300689481	2
0	5790	918.381003711313	1
0	5791	918.381003711313	0
0	5798	919.152700977366	1
0	5799	919.649942108043	0
0	5805	919.921932250677	1
0	5806	920.381003711313	0
0	5812	921.019675045535	1
0	5813	921.152700977366	0
0	5819	921.73014348449	1
0	5820	921.921932250677	0
0	5826	922.836443893524	1
0	5827	923.019675045535	0
0	5833	923.641896214072	1
0	5834	923.73014348449	0
0	5840	924.797535914514	1
0	5841	924.836443893524	0
0	5847	925.434581396113	1
0	5848	925.641896214072	0
0	5917	940.736924782996	1
0	5918	940.741149772759	0
0	5924	941.259709870896	1
0	5925	941.781964960542	0
0	5931	942.176579993927	1
0	5932	942.736924782996	0
0	5938	942.961664002793	1
0	5939	943.259709870896	0
0	5945	943.889760231842	1
0	5946	944.176579993927	0
0	5952	944.948395265906	1
0	5953	944.961664002793	0
0	5959	945.685571653916	1
0	5960	945.889760231842	0
0	5980	948.283757927667	1
0	5981	949.626445394812	0
0	5987	949.744907670865	1
0	5988	949.970154773114	0
0	6029	957.347842529856	1
0	6031	957.831752680193	2
0	6032	957.831752680193	3
0	6033	958.174549957003	2
0	6034	958.174549957003	1
0	6037	958.712337748202	0
0	6043	959.229417772654	1
0	6044	959.347842529856	0
0	6047	959.748850537438	1
0	6048	959.748850537438	2
0	6049	960.174549957003	1
0	6050	960.174549957003	0
0	6057	961.18360714482	1
0	6058	961.229417772654	0
0	6078	963.950976194199	1
0	6079	964.666037486431	0
0	6085	965.270086000447	1
0	6086	965.644234388549	0
0	6120	971.345077553774	1
0	6121	971.895362117526	0
0	6127	972.323364085243	1
0	6128	972.755673846155	0
0	6134	973.032647223322	1
0	6135	973.345077553774	0
0	6138	973.792988703502	1
0	6139	973.792988703502	2
0	6141	973.88342654157	3
0	6142	973.88342654157	4
0	6143	973.895362117526	3
0	6145	974.323364085243	2
0	6147	974.755673846155	1
0	6149	975.032647223322	0
0	6162	976.460782564862	1
0	6163	976.755673846155	0
0	6169	977.414476136413	1
0	6171	978.112684377892	2
0	6172	978.112684377892	3
0	6173	978.398410061188	2
0	6174	978.398410061188	1
0	6177	978.460782564862	0
0	6183	978.933955357903	1
0	6184	979.414476136413	0
0	6218	984.851231702087	1
0	6219	984.962784070886	0
0	6225	986.003527658272	1
0	6226	986.075154457485	0
0	6239	987.851640855052	1
0	6240	988.003527658272	0
0	6281	995.658997408167	1
0	6282	995.694196282721	0
0	6323	1003.110977144283	1
0	6324	1003.189643517502	0
0	6330	1003.542738774854	1
0	6332	1004.004294360289	2
0	6333	1004.004294360289	3