version 3
run MMc-34-20221127-11:38:42-21264
attr configname MMc
attr datetime 20221127-11:38:42
attr datetimef 20221127-113842
attr experiment MMc
attr inifile omnetpp.ini
attr iterationvars "$mean=uniform(0.5s, 1.5s), $dev=0.5*(uniform(0.5s, 1.5s)), $time=2.0, $num=5, $0=47853, $1=24674, $2=96433"
attr iterationvarsd mean=uniform(0.5s,_1.5s)/dev=0.5#2a(uniform(0.5s,_1.5s))/time=2.0/num=5/47853/24674/96433
attr iterationvarsf mean=uniform(0.5s,_1.5s),dev=0.5#2a(uniform(0.5s,_1.5s)),time=2.0,num=5,47853,24674,96433-
attr measurement "$mean=uniform(0.5s, 1.5s), $dev=0.5*(uniform(0.5s, 1.5s)), $time=2.0, $num=5, $0=47853, $1=24674, $2=96433"
attr network MMc
attr processid 21264
attr repetition 2
attr replication #2
attr resultdir results
attr runnumber 34
attr seedset 34
itervar dev "0.5*(uniform(0.5s, 1.5s))"
itervar mean "uniform(0.5s, 1.5s)"
itervar num 5
itervar time 2.0
config description "MMc module"
config network MMc
config MMc.source.interArrivalTime "truncnormal(uniform(0.5s, 1.5s), 0.5*(uniform(0.5s, 1.5s)))"
config MMc.mmc.serviceTime 2.0s
config MMc.mmc.c 5
config MMc.mmc.capacity 10000
config record-eventlog false
config **.scalar-recording true
config **.vector-recording true
config repeat 4
config seed-1-mt 47853
config seed-2-mt 24674
config seed-3-mt 96433
config output-vector-file MMc-5-2.0-results/2.vec
config output-scalar-file MMc-5-2.0-results/2.sca

vector 0 MMc.mmc queueLength:vector ETV
attr interpolationmode none
attr recordingmode vector
attr title "queue length"
vector 1 MMc.mmc util:vector ETV
attr interpolationmode none
attr recordingmode vector
attr title resources
0	0	0	0
0	9	10.656294522299	1
0	11	11.737717499999	2
0	12	11.737717499999	3
0	13	12	2
0	14	12	1
0	17	12.001916354296	0
0	23	12.598573647211	1
0	24	12.656294522299	0
0	27	13.511845774619	1
0	28	13.511845774619	2
0	29	14	1
0	30	14	0
0	51	17.579209761866	1
0	52	17.625412494462	0
0	65	18.957364406076	1
0	67	19.494273186317	2
0	68	19.494273186317	3
0	69	19.579209761866	2
0	71	19.625412494462	1
0	74	20.568150624838	2
0	75	20.568150624838	3
0	76	20.617743172334	2
0	77	20.617743172334	1
0	80	20.957364406076	0
0	114	26.612205202551	1
0	115	26.641540372251	0
0	135	31.195466086591	1
0	136	31.470976058705	0
0	170	37.973997662338	1
0	171	38.021863147312	0
0	177	39.147998060415	1
0	178	39.560554329569	0
0	184	39.90371299659	1
0	185	39.973997662338	0
0	191	40.031819382188	1
0	193	40.593184002815	2
0	194	40.593184002815	3
0	196	41.018799911197	4
0	197	41.018799911197	5
0	198	41.147998060415	4
0	200	41.560554329569	3
0	202	41.90371299659	2
0	205	41.905518682177	3
0	206	41.905518682177	4
0	207	41.973997662338	3
0	209	42.031819382188	2
0	212	42.782922314599	3
0	213	42.782922314599	4
0	214	43.147998060415	3
0	216	43.560554329569	2
0	218	43.90371299659	1
0	220	43.973997662338	0
0	226	44.261979788233	1
0	228	45.127071209027	2
0	229	45.127071209027	3
0	230	45.147998060415	2
0	232	45.560554329569	1
0	234	45.90371299659	0
0	261	50.149635492314	1
0	262	50.255580597783	0
0	296	56.754221771785	1
0	297	56.962402936314	0
0	303	58.069686150637	1
0	304	58.138107013873	0
0	338	63.165743447183	1
0	339	63.395950377234	0
0	359	66.389711587079	1
0	360	66.911353381262	0
0	408	76.489986679045	1
0	409	77.034884924357	0
0	415	77.351176888877	1
0	417	77.877761620951	2
0	418	77.877761620951	3
0	419	77.926655974732	2
0	420	77.926655974732	1
0	423	78.489986679045	0
0	426	78.589266677444	1
0	427	78.589266677444	2
0	428	79.034884924357	1
0	430	79.351176888877	0
0	433	79.865317709105	1
0	434	79.865317709105	2
0	435	79.926655974732	1
0	436	79.926655974732	0
0	443	80.56907165865	1
0	444	81.034884924357	0
0	450	81.357530312331	1
0	452	81.491382836791	2
0	453	81.491382836791	3
0	454	81.926655974732	2
0	455	81.926655974732	1
0	458	82.56907165865	0
0	464	83.049970959098	1
0	465	83.357530312331	0
0	468	83.568347422734	1
0	469	83.568347422734	2
0	471	83.923662527899	3
0	472	83.923662527899	4
0	473	83.926655974732	3
0	474	83.926655974732	2
0	477	84.56907165865	1
0	479	85.049970959098	0
0	482	85.146698730717	1
0	483	85.146698730717	2
0	484	85.357530312331	1
0	486	85.926655974732	0
0	527	92.295223937314	1
0	528	92.349391280706	0
0	555	96.977175962545	1
0	556	97.18774590841	0
0	562	97.26949917505	1
0	563	98.174407466468	0
0	569	98.656495866036	1
0	570	98.977175962545	0
0	573	99.109120649262	1
0	574	99.109120649262	2
0	575	99.18774590841	1
0	577	99.26949917505	0
0	580	99.472632536848	1
0	581	99.472632536848	2
0	582	100.174407466468	1
0	585	100.384051590809	2
0	586	100.384051590809	3
0	587	100.656495866036	2
0	589	100.977175962545	1
0	591	101.18774590841	0
0	611	104.780749673209	1
0	612	104.898269074036	0
0	618	105.499339589119	1
0	619	105.76024239106	0
0	625	106.712954406244	1
0	626	106.780749673209	0
0	674	114.463397888761	1
0	675	114.78544966883	0
0	681	115.313313470675	1
0	683	115.832710346881	2
0	684	115.832710346881	3
0	685	116.111100868336	2
0	686	116.111100868336	1
0	689	116.463397888761	0
0	695	117.04490766796	1
0	696	117.313313470675	0
0	699	117.797875714572	1
0	700	117.797875714572	2
0	702	117.81594832381	3
0	703	117.81594832381	4
0	704	118.111100868336	3
0	705	118.111100868336	2
0	708	118.463397888761	1
0	710	119.04490766796	0
0	716	120.048602532008	1
0	717	120.111100868336	0
0	723	120.434573197422	1
0	724	120.463397888761	0
0	730	121.049287278404	1
0	731	122.048602532008	0
0	758	126.094796907635	1
0	759	126.221066597071	0
0	793	131.34145477274	1
0	794	131.633467851022	0
0	800	132.310920116462	1
0	801	133.271756627102	0
0	821	136.238616627488	1
0	822	136.297887373674	0
0	849	140.896067345787	1
0	851	141.36155835422	2
0	852	141.36155835422	3
0	853	141.40633591297	2
0	854	141.40633591297	1
0	857	142.11217026855	0
0	863	142.830078495677	1
0	864	142.896067345787	0
0	905	149.680592080474	1
0	906	150.477089489564	0
0	912	150.50387255454	1
0	913	151.366939446706	0
0	923	151.996510635139	1
0	924	151.996510635139	2
0	926	152.085323632955	3
0	927	152.085323632955	4
0	928	152.477089489564	3
0	930	152.50387255454	2
0	933	152.861740277145	3
0	934	152.861740277145	4
0	935	153.366939446706	3
0	937	153.755871626282	2
0	938	153.755871626282	1
0	942	154.336870214315	2
0	943	154.336870214315	3
0	944	154.477089489564	2
0	946	154.50387255454	1
0	949	154.627014447492	2
0	950	154.627014447492	3
0	951	155.366939446706	2
0	953	155.755871626282	1
0	954	155.755871626282	0
0	958	155.828810522033	1
0	959	155.828810522033	2
0	960	156.477089489564	1
0	962	156.50387255454	0
0	968	157.401050815663	1
0	969	157.755871626282	0
0	989	161.033360587285	1
0	990	161.234925426735	0
0	1003	162.34489684273	1
0	1004	163.033360587285	0
0	1010	163.87754380818	1
0	1011	163.909622160687	0
0	1021	164.978802077095	1
0	1022	164.978802077095	2
0	1023	165.033360587285	1
0	1025	165.87754380818	0
0	1031	166.07736852753	1
0	1032	166.921003620917	0
0	1073	172.540821855929	1
0	1074	172.863778838786	0
0	1094	175.285900218059	1
0	1096	175.704120928183	2
0	1097	175.704120928183	3
0	1098	175.834103527179	2
0	1099	175.834103527179	1
0	1102	176.86063618774	0
0	1108	177.182716420838	1
0	1109	177.285900218059	0
0	1136	181.876789838303	1
0	1137	181.95528805022	0
0	1143	182.134372144998	1
0	1144	183.205362942492	0
0	1150	183.679837562311	1
0	1151	183.876789838303	0
0	1164	185.500535066852	1
0	1165	185.679837562311	0
0	1185	188.642910060151	1
0	1186	188.881314845102	0
0	1206	191.940333100541	1
0	1207	192.029772654574	0
0	1269	202.227104941466	1
0	1270	202.266121807249	0
0	1276	203.043475640801	1
0	1277	203.70640617381	0
0	1283	204.042181606851	1
0	1284	204.227104941466	0
0	1304	207.876997968427	1
0	1305	208.018262640166	0
0	1311	209.568048937508	1
0	1312	209.708055636538	0
0	1325	210.761295619929	1
0	1326	211.568048937508	0
0	1332	211.877995616044	1
0	1333	212.496265795452	0
0	1343	213.431998425144	1
0	1344	213.431998425144	2
0	1345	213.568048937508	1
0	1347	213.877995616044	0
0	1353	214.851742072113	1
0	1354	214.919515266756	0
0	1367	216.570419520788	1
0	1368	216.851742072113	0
0	1423	226.729060737358	1
0	1424	227.105219456662	0
0	1437	228.581478980111	1
0	1438	228.729060737358	0
0	1444	229.618374100302	1
0	1446	229.759544844968	2
0	1447	229.759544844968	3
0	1448	230.048936544722	2
0	1449	230.048936544722	1
0	1452	230.581478980111	0
0	1458	231.004531751083	1
0	1459	231.618374100302	0
0	1462	231.965014852658	1
0	1463	231.965014852658	2
0	1464	232.048936544722	1
0	1465	232.048936544722	0
0	1469	232.53893290809	1
0	1470	232.53893290809	2
0	1471	232.581478980111	1
0	1473	233.004531751083	0
0	1479	233.843524268102	1
0	1480	234.048936544722	0
0	1528	242.541728077707	1
0	1530	243.18005044906	2
0	1531	243.18005044906	3
0	1532	243.334999788948	2
0	1533	243.334999788948	1
0	1536	244.397356622852	0
0	1556	246.542285167216	1
0	1558	247.23717916765	2
0	1559	247.23717916765	3
0	1560	247.38511725984	2
0	1561	247.38511725984	1
0	1565	247.421959507352	2
0	1566	247.421959507352	3
0	1567	248.422470380501	2
0	1568	248.422470380501	1
0	1571	248.542285167216	0
0	1574	248.553080803317	1
0	1575	248.553080803317	2
0	1577	248.83838196494	3
0	1578	248.83838196494	4
0	1579	249.38511725984	3
0	1580	249.38511725984	2
0	1584	250.115520284562	3
0	1585	250.115520284562	4
0	1586	250.422470380501	3
0	1587	250.422470380501	2
0	1590	250.542285167216	1
0	1593	251.083876264364	2
0	1594	251.083876264364	3
0	1595	251.38511725984	2
0	1596	251.38511725984	1
0	1600	251.906173769162	2
0	1601	251.906173769162	3
0	1602	252.422470380501	2
0	1603	252.422470380501	1
0	1606	252.542285167216	0
0	1609	252.58536022247	1
0	1610	252.58536022247	2
0	1611	253.38511725984	1
0	1612	253.38511725984	0
0	1616	254.181158222421	1
0	1617	254.181158222421	2
0	1618	254.422470380501	1
0	1619	254.422470380501	0
0	1647	258.397134895002	1
0	1648	258.975109398025	0
0	1654	259.242602794314	1
0	1655	260.054643932117	0
0	1717	269.870413530327	1
0	1719	270.302764635863	2
0	1720	270.302764635863	3
0	1721	270.900448674209	2
0	1722	270.900448674209	1
0	1725	271.486215240281	0
0	1759	275.814157550398	1
0	1760	276.832725584576	0
0	1787	281.470815785337	1
0	1788	281.812268906844	0
0	1794	282.236480121833	1
0	1795	282.729751521809	0
0	1801	282.889078782464	1
0	1802	283.470815785337	0
0	1808	284.009075240701	1
0	1809	284.236480121833	0
0	1812	284.625436650267	1
0	1813	284.625436650267	2
0	1814	284.729751521809	1
0	1816	284.889078782464	0
0	1822	285.742259001446	1
0	1823	286.009075240701	0
0	1829	286.290033144467	1
0	1830	286.729751521809	0
0	1836	287.175941247566	1
0	1837	287.742259001446	0
0	1843	288.256697133646	1
0	1844	288.290033144467	0
0	1864	291.329089942338	1
0	1865	291.775088124518	0
0	1871	292.694381551384	1
0	1872	292.884657884446	0
0	1885	294.538564443748	1
0	1886	294.694381551384	0
0	1927	302.325385410497	1
0	1928	302.513564409071	0
0	1934	302.848449965289	1
0	1935	303.363880838289	0
0	1941	303.984355853912	1
0	1942	304.325385410497	0
0	1945	304.417362923416	1
0	1946	304.417362923416	2
0	1947	304.513564409071	1
0	1949	304.848449965289	0
0	1952	304.896049222586	1
0	1953	304.896049222586	2
0	1955	305.12481924367	3
0	1956	305.12481924367	4
0	1957	305.363880838289	3
0	1960	305.964366506894	4
0	1961	305.964366506894	5
0	1962	305.984355853912	4
0	1964	306.325385410497	3
0	1966	306.513564409071	2
0	1968	306.848449965289	1
0	1970	307.363880838289	0
0	1976	308.074045213814	1
0	1977	308.325385410497	0
0	1990	310.066637891496	1
0	1991	310.074045213814	0
0	2011	312.971194686484	1
0	2012	313.635836056114	0
0	2029	315.55735776502	1
0	2030	315.55735776502	2
0	2031	315.635836056114	1
0	2034	315.905047431126	2
0	2035	315.905047431126	3
0	2036	316.782023541803	2
0	2037	316.782023541803	1
0	2040	317.198495072827	0
0	2046	317.433301138378	1
0	2047	317.635836056114	0
0	2067	320.145360183083	1
0	2068	321.430059655821	0
0	2116	328.971678063615	1
0	2117	329.543616818408	0
0	2123	330.28131504328	1
0	2124	330.908725868602	0
0	2130	330.958631016555	1
0	2131	330.971678063615	0
0	2134	331.326905556798	1
0	2135	331.326905556798	2
0	2136	331.543616818408	1
0	2138	332.28131504328	0
0	2151	333.370577656088	1
0	2152	333.543616818408	0
0	2158	334.685051271085	1
0	2159	334.981246923321	0
0	2165	335.238853754383	1
0	2166	335.370577656088	0
0	2172	336.458096734094	1
0	2173	336.685051271085	0
0	2186	337.670377291887	1
0	2187	338.458096734094	0
0	2235	346.843776037166	1
0	2236	347.35700574463	0
0	2242	347.549898522782	1
0	2243	348.125597697887	0
0	2249	348.428567179729	1
0	2250	348.843776037166	0
0	2256	349.435341858984	1
0	2257	349.549898522782	0
0	2260	350.032300246574	1
0	2261	350.032300246574	2
0	2262	350.125597697887	1
0	2264	350.428567179729	0
0	2270	351.024003057208	1
0	2271	351.435341858984	0
0	2277	351.985279224596	1
0	2278	352.125597697887	0
0	2291	353.756164311924	1
0	2292	353.985279224596	0
0	2298	354.217465070834	1
0	2299	355.184564967028	0
0	2309	355.906501071741	1
0	2310	355.906501071741	2
0	2311	355.985279224596	1
0	2314	356.191792260908	2
0	2315	356.191792260908	3
0	2316	356.217465070834	2
0	2319	356.967257040819	3
0	2320	356.967257040819	4
0	2321	357.184564967028	3
0	2323	357.872305276613	2
0	2324	357.872305276613	1
0	2327	357.985279224596	0
0	2333	358.891825092845	1
0	2334	359.184564967028	0
0	2337	359.707656359831	1
0	2338	359.707656359831	2
0	2339	359.872305276613	1
0	2340	359.872305276613	0
0	2382	366.445244578018	1
0	2383	366.669607873766	0
0	2403	370.385910795259	1
0	2404	370.986120795122	0
0	2417	372.25188045835	1
0	2418	372.385910795259	0
0	2466	381.083481504609	1
0	2467	381.755463424696	0
0	2484	383.519108759152	1
0	2485	383.519108759152	2
0	2486	383.755463424696	1
0	2489	384.49999773086	2
0	2490	384.49999773086	3
0	2492	384.724536392639	4
0	2493	384.724536392639	5
0	2494	385.432323864161	4
0	2495	385.432323864161	3
0	2498	385.445730534522	2
0	2499	385.445730534522	1
0	2503	385.577211822547	2
0	2504	385.577211822547	3
0	2505	385.755463424696	2
0	2508	387.375746179356	3
0	2509	387.375746179356	4
0	2510	387.432323864161	3
0	2511	387.432323864161	2
0	2514	387.445730534522	1
0	2515	387.445730534522	0
0	2557	395.258964116436	1
0	2558	395.378926657583	0
0	2564	396.412239228514	1
0	2565	396.580055689746	0
0	2571	397.0357836492	1
0	2572	397.258964116436	0
0	2592	399.963649702653	1
0	2593	400.820718421309	0
0	2599	401.197396657116	1
0	2600	401.66940415964	0
0	2617	403.489719781089	1
0	2618	403.489719781089	2
0	2619	403.66940415964	1
0	2622	404.243992419608	2
0	2623	404.243992419608	3
0	2624	404.951796069343	2
0	2625	404.951796069343	1
0	2628	405.432567083662	0
0	2634	405.579209394187	1
0	2635	405.66940415964	0
0	2669	411.175161953888	1
0	2670	411.508701564962	0
0	2676	411.942872132549	1
0	2677	412.622931853245	0
0	2711	420.318196800008	1
0	2712	420.59365290037	0
0	2718	420.64220946185	1
0	2719	421.783649495178	0
0	2736	423.510335024781	1
0	2737	423.510335024781	2
0	2738	423.783649495178	1
0	2740	424.352112770846	0
0	2746	424.70214621633	1
0	2747	424.914855371617	0
0	2760	426.701658480254	1
0	2761	426.70214621633	0
0	2767	427.612393152737	1
0	2768	427.830941313458	0
0	2795	431.587440307891	1
0	2796	432.065702943653	0
0	2802	432.726930940547	1
0	2804	432.92855782432	2
0	2805	432.92855782432	3
0	2806	433.295864119955	2
0	2807	433.295864119955	1
0	2810	433.587440307891	0
0	2816	434.48255018464	1
0	2817	434.726930940547	0
0	2844	438.605074361369	1
0	2845	439.228427904518	0
0	2872	442.95092830181	1
0	2873	443.506012135111	0
0	2879	443.52076360334	1
0	2881	444.289571639753	2
0	2882	444.289571639753	3
0	2883	444.778104767857	2
0	2884	444.778104767857	1
0	2888	444.848524267239	2
0	2889	444.848524267239	3
0	2890	444.95092830181	2
0	2892	445.506012135111	1
0	2894	445.52076360334	0
0	2897	446.493791866253	1
0	2898	446.493791866253	2
0	2899	446.778104767857	1
0	2900	446.778104767857	0
0	2907	447.010534050875	1
0	2908	447.506012135111	0
0	2914	448.72617602023	1
0	2915	448.778104767857	0
0	2928	450.621865869062	1
0	2929	450.72617602023	0
0	2963	457.019476560235	1
0	2964	457.111669447478	0
0	2984	460.516680123387	1
0	2985	460.699294549725	0
0	3005	464.249601555283	1
0	3007	464.287183160097	2
0	3008	464.287183160097	3
0	3009	464.311359766345	2
0	3010	464.311359766345	1
0	3013	465.394569835656	0
0	3033	468.11542983938	1
0	3034	468.440338363546	0
0	3075	474.822323636505	1
0	3076	475.141658704602	0
0	3082	475.407114920015	1
0	3084	476.737429373932	2
0	3085	476.737429373932	3
0	3086	476.764330333376	2
0	3087	476.764330333376	1
0	3090	476.822323636505	0
0	3110	479.178806124328	1
0	3112	479.507758126166	2
0	3113	479.507758126166	3
0	3114	479.997654333485	2
0	3115	479.997654333485	1
0	3119	480.061193743643	2
0	3120	480.061193743643	3
0	3121	481.055893608312	2
0	3122	481.055893608312	1
0	3126	481.120276252886	2
0	3127	481.120276252886	3
0	3128	481.178806124328	2
0	3131	481.458622811522	3
0	3132	481.458622811522	4
0	3133	481.997654333485	3
0	3134	481.997654333485	2
0	3138	482.013566080272	3
0	3139	482.013566080272	4
0	3141	483.054702485914	5
0	3142	483.054702485914	6
0	3143	483.055893608312	5
0	3144	483.055893608312	4
0	3147	483.178806124328	3
0	3149	483.997654333485	2
0	3150	483.997654333485	1
0	3153	485.055893608312	0
0	3159	485.067574854103	1
0	3160	485.178806124328	0
0	3163	485.623343957415	1
0	3164	485.623343957415	2
0	3165	485.997654333485	1
0	3166	485.997654333485	0
0	3170	486.607455151391	1
0	3171	486.607455151391	2
0	3172	487.055893608312	1
0	3174	487.067574854103	0
0	3180	487.496057338296	1
0	3181	487.997654333485	0
0	3222	494.945608238134	1
0	3223	495.429353057981	0
0	3229	496.573914236012	1
0	3230	496.854500830731	0
0	3243	497.618734921639	1
0	3244	498.573914236012	0
0	3247	498.732572596928	1
0	3248	498.732572596928	2
0	3249	498.854500830731	1
0	3251	499.177661861517	0
0	3257	499.247426431482	1
0	3258	499.618734921639	0
0	3261	499.686946171301	1
0	3262	499.686946171301	2
0	3264	500.193573507295	3
0	3265	500.193573507295	4
0	3266	500.573914236012	3
0	3268	500.854500830731	2
0	3271	500.927132192347	3
0	3272	500.927132192347	4
0	3273	501.177661861517	3
0	3275	501.247426431482	2
0	3277	501.618734921639	1
0	3280	501.70263665395	2
0	3281	501.70263665395	3
0	3282	502.573914236012	2
0	3284	502.854500830731	1
0	3287	503.0929198223	2
0	3288	503.0929198223	3
0	3289	503.177661861517	2
0	3291	503.247426431482	1
0	3293	503.618734921639	0
0	3327	509.462945097748	1
0	3329	509.830720986198	2
0	3330	509.830720986198	3
0	3331	510.236075570636	2
0	3332	510.236075570636	1
0	3335	510.845021223395	0
0	3341	510.92027903851	1
0	3342	511.462945097748	0
0	3345	512.124417713827	1
0	3346	512.124417713827	2
0	3347	512.236075570636	1
0	3348	512.236075570636	0
0	3352	512.80488108051	1
0	3353	512.80488108051	2
0	3354	512.845021223395	1
0	3356	512.92027903851	0
0	3359	513.003804761342	1
0	3360	513.003804761342	2
0	3361	513.462945097748	1
0	3364	513.751086855684	2
0	3365	513.751086855684	3
0	3366	514.236075570636	2
0	3367	514.236075570636	1
0	3371	514.528961092143	2
0	3372	514.528961092143	3
0	3373	514.845021223395	2
0	3375	514.92027903851	1
0	3377	515.462945097748	0
0	3380	515.786134819003	1
0	3381	515.786134819003	2
0	3382	516.236075570636	1
0	3383	516.236075570636	0
0	3387	516.74993352156	1
0	3388	516.74993352156	2
0	3389	516.845021223395	1
0	3391	516.92027903851	0
0	3397	518.037574818769	1
0	3398	518.236075570636	0
0	3418	520.385689163961	1
0	3419	521.264613547865	0
0	3446	524.417898217308	1
0	3447	525.153401067485	0
0	3453	525.958085056864	1
0	3454	526.272998957534	0
0	3467	527.517059298094	1
0	3468	527.958085056864	0
0	3474	528.667416702564	1
0	3475	528.933621579421	0
0	3502	533.499743199541	1
0	3504	533.716778175081	2
0	3505	533.716778175081	3
0	3506	533.926712619229	2
0	3507	533.926712619229	1
0	3511	534.152172213971	2
0	3512	534.152172213971	3
0	3513	534.836047822665	2
0	3514	534.836047822665	1
0	3518	535.215934303008	2
0	3519	535.215934303008	3
0	3520	535.499743199541	2
0	3522	535.926712619229	1
0	3523	535.926712619229	0
0	3527	536.061757986274	1
0	3528	536.061757986274	2
0	3530	536.530128324066	3
0	3531	536.530128324066	4
0	3532	536.836047822665	3
0	3533	536.836047822665	2
0	3537	537.214361841399	3
0	3538	537.214361841399	4
0	3539	537.499743199541	3
0	3541	537.926712619229	2
0	3542	537.926712619229	1
0	3546	538.386631218515	2
0	3547	538.386631218515	3
0	3549	538.812095451072	4
0	3550	538.812095451072	5
0	3551	538.836047822665	4
0	3552	538.836047822665	3
0	3555	539.499743199541	2
0	3558	539.823534362947	3
0	3559	539.823534362947	4
0	3560	539.926712619229	3
0	3561	539.926712619229	2
0	3565	540.476820138435	3
0	3566	540.476820138435	4
0	3567	540.836047822665	3
0	3568	540.836047822665	2
0	3571	541.499743199541	1
0	3574	541.908176463278	2
0	3575	541.908176463278	3
0	3576	541.926712619229	2
0	3577	541.926712619229	1
0	3580	542.836047822665	0
0	3586	543.350289177414	1
0	3587	543.499743199541	0
0	3597	544.583805803548	1
0	3598	544.583805803548	2
0	3599	544.836047822665	1
0	3601	545.350289177414	0
0	3607	545.678545049023	1
0	3608	546.29444032861	0
0	3635	550.360319433205	1
0	3636	551.077889220932	0
0	3642	551.601255247037	1
0	3643	551.860613861032	0
0	3684	559.042177691428	1
0	3685	559.358308158874	0
0	3705	561.732672603311	1
0	3706	562.370295938081	0
0	3712	563.10169888293	1
0	3713	563.305020505178	0
0	3726	564.997692846891	1
0	3727	565.10169888293	0
0	3733	565.505036527146	1
0	3735	566.237821658469	2
0	3736	566.237821658469	3
0	3737	566.664993166856	2
0	3738	566.664993166856	1
0	3741	566.997692846891	0
0	3744	567.042216526734	1
0	3745	567.042216526734	2
0	3746	567.10169888293	1
0	3748	567.505036527146	0
0	3751	568.336642325307	1
0	3752	568.336642325307	2
0	3753	568.664993166856	1
0	3754	568.664993166856	0
0	3768	570.349326561094	1
0	3769	570.664993166856	0
0	3803	575.688325965377	1
0	3804	576.274969949208	0
0	3810	576.97663987345	1
0	3811	577.16671355452	0
0	3824	578.517070021855	1
0	3825	578.97663987345	0
0	3838	580.246618316583	1
0	3839	580.517070021855	0
0	3845	581.603687089282	1
0	3846	582.077848581762	0
0	3894	590.751892349133	1
0	3895	590.870403790529	0
0	3908	592.060257765704	1
0	3910	592.662668462629	2
0	3911	592.662668462629	3
0	3912	592.751892349133	2
0	3914	592.870403790529	1
0	3917	593.532449453802	2
0	3918	593.532449453802	3
0	3919	593.787247112509	2
0	3920	593.787247112509	1
0	3923	594.060257765704	0
0	3926	594.114098996932	1
0	3927	594.114098996932	2
0	3928	594.751892349133	1
0	3930	594.870403790529	0
0	3950	597.723513550792	1
0	3951	598.298352837396	0
0	3971	601.763650011206	1
0	3973	601.905035383317	2
0	3974	601.905035383317	3
0	3975	602.210201404694	2
0	3976	602.210201404694	1
0	3980	602.620552983551	2
0	3981	602.620552983551	3
0	3982	602.816696550083	2
0	3983	602.816696550083	1
0	3987	602.877330242107	2
0	3988	602.877330242107	3
0	3989	603.763650011206	2
0	3992	604.127013784124	3
0	3993	604.127013784124	4
0	3994	604.210201404694	3
0	3995	604.210201404694	2
0	3998	604.816696550083	1
0	3999	604.816696550083	0
0	4003	604.944688004945	1
0	4004	604.944688004945	2
0	4005	605.763650011206	1
0	4008	605.978750206594	2
0	4009	605.978750206594	3
0	4010	606.210201404694	2
0	4011	606.210201404694	1
0	4014	606.816696550083	0
0	4020	607.225196328599	1
0	4021	607.763650011206	0
0	4041	610.579756329144	1
0	4042	610.588614361317	0
0	4048	611.613751188082	1
0	4049	611.654335438793	0
0	4055	612.488523289215	1
0	4056	612.579756329144	0
0	4062	613.266226048344	1
0	4063	613.613751188082	0
0	4083	616.546172150395	1
0	4084	616.673221693743	0
0	4125	623.995071609751	1
0	4126	624.87488164858	0
0	4146	627.419812092411	1
0	4147	627.653877041403	0
0	4237	643.275643625936	1
0	4238	643.742440405618	0
0	4251	644.945818698383	1
0	4253	645.275187930908	2
0	4254	645.275187930908	3
0	4255	645.275643625936	2
0	4257	645.742440405618	1
0	4260	646.046817373135	2
0	4261	646.046817373135	3
0	4262	646.395794516521	2
0	4263	646.395794516521	1
0	4266	646.945818698383	0
0	4307	652.799150313999	1
0	4308	653.863953640753	0
0	4370	664.43891730025	1
0	4371	664.99997769084	0
0	4377	665.107248959478	1
0	4378	665.553684713712	0
0	4461	681.908778657127	1
0	4462	682.224739184566	0
0	4496	688.430828895848	1
0	4497	688.762379130623	0
0	4524	693.098360080555	1
0	4525	693.746120758949	0
0	4531	693.827647039789	1
0	4533	693.938565129241	2
0	4534	693.938565129241	3
0	4535	694.165189617253	2
0	4536	694.165189617253	1
0	4540	694.894549302612	2
0	4541	694.894549302612	3
0	4542	695.098360080555	2
0	4545	695.552429654857	3
0	4546	695.552429654857	4
0	4547	695.746120758949	3
0	4549	695.827647039789	2
0	4551	696.165189617253	1
0	4552	696.165189617253	0
0	4556	696.510127556515	1
0	4557	696.510127556515	2
0	4558	697.098360080555	1
0	4561	697.442692625653	2
0	4562	697.442692625653	3
0	4563	697.746120758949	2
0	4565	697.827647039789	1
0	4567	698.165189617253	0
0	4573	698.388188846282	1
0	4574	699.098360080555	0
0	4577	699.252312509211	1
0	4578	699.252312509211	2
0	4579	699.746120758949	1
0	4581	699.827647039789	0
0	4584	700.126612131716	1
0	4585	700.126612131716	2
0	4586	700.165189617253	1
0	4588	700.388188846282	0
0	4591	700.694392979881	1
0	4592	700.694392979881	2
0	4593	701.098360080555	1
0	4595	701.746120758949	0
0	4598	701.765839878174	1
0	4599	701.765839878174	2
0	4600	701.827647039789	1
0	4602	702.165189617253	0
0	4636	708.142501249116	1
0	4637	708.477928574376	0
0	4650	709.955547789053	1
0	4651	710.142501249116	0
0	4657	710.568187931074	1
0	4659	710.642868508759	2
0	4660	710.642868508759	3
0	4661	711.768007318551	2
0	4662	711.768007318551	1
0	4665	711.955547789053	0
0	4668	712.007689688737	1
0	4669	712.007689688737	2
0	4670	712.142501249116	1
0	4672	712.568187931074	0
0	4675	713.504346765373	1
0	4676	713.504346765373	2
0	4677	713.768007318551	1
0	4678	713.768007318551	0
0	4720	720.720545974003	1
0	4721	720.814151037406	0
0	4727	722.001210191056	1
0	4728	722.355860123858	0
0	4741	722.892245168668	1
0	4742	724.001210191056	0
0	4748	724.826333446449	1
0	4749	724.846955842104	0
0	4769	728.297575204001	1
0	4770	728.684588276409	0
0	4783	730.269157146088	1
0	4784	730.297575204001	0
0	4790	731.189676394243	1
0	4791	732.042482587165	0
0	4846	740.752196678521	1
0	4847	741.022181880838	0
0	4853	741.086942613828	1
0	4855	741.454302049922	2
0	4856	741.454302049922	3
0	4858	741.820293728451	4
0	4859	741.820293728451	5
0	4860	742.002204236809	4
0	4861	742.002204236809	3
0	4864	742.752196678521	2
0	4866	743.022181880838	1
0	4868	743.086942613828	0
0	4888	745.742894206842	1
0	4889	746.137569611242	0
0	4895	747.169332214691	1
0	4896	747.485602380579	0
0	4923	751.149820257138	1
0	4924	751.73107146158	0
0	4944	753.808635427186	1
0	4946	754.466905246524	2
0	4947	754.466905246524	3
0	4948	754.644398883677	2
0	4949	754.644398883677	1
0	4952	755.232640607033	0
0	4972	757.926517978438	1
0	4974	757.985709320778	2
0	4975	757.985709320778	3
0	4976	758.265290814888	2
0	4977	758.265290814888	1
0	4981	759.264932916972	2
0	4982	759.264932916972	3
0	4983	759.595957339657	2
0	4984	759.595957339657	1
0	4987	759.926517978438	0
0	4997	761.127603207468	1
0	4998	761.127603207468	2
0	4999	761.595957339657	1
0	5000	761.595957339657	0
0	5014	763.338767723566	1
0	5015	763.595957339657	0
0	5028	765.26793576097	1
0	5029	765.338767723566	0
0	5070	772.167958492208	1
0	5071	772.846565843109	0
0	5091	775.935229686231	1
0	5092	776.089943571489	0
0	5098	776.258665531257	1
0	5100	777.079608927703	2
0	5101	777.079608927703	3
0	5102	777.127166145478	2
0	5103	777.127166145478	1
0	5107	777.870126561336	2
0	5108	777.870126561336	3
0	5109	777.935229686231	2
0	5111	778.089943571489	1
0	5113	778.258665531257	0
0	5116	778.580912509065	1
0	5117	778.580912509065	2
0	5118	779.127166145478	1
0	5119	779.127166145478	0
0	5140	781.96578591555	1
0	5141	782.238528067192	0
0	5147	782.567651863959	1
0	5148	783.15782500616	0
0	5182	789.171697624155	1
0	5183	789.501234229222	0
0	5203	792.058407868451	1
0	5204	792.523648761444	0
0	5224	795.832517182005	1
0	5225	796.316773027079	0
0	5231	796.40448542827	1
0	5232	796.754027081245	0
0	5238	797.319376166815	1
0	5239	797.832517182005	0
0	5259	800.584505029955	1
0	5260	800.61470639342	0
0	5301	808.109255603125	1
0	5302	808.402414450872	0
0	5336	813.66222707258	1
0	5337	814.096287199744	0
0	5343	814.453985335113	1
0	5344	814.716926278541	0
0	5350	815.438403930461	1
0	5351	815.66222707258	0
0	5371	819.481172096364	1
0	5372	819.96207301561	0
0	5434	831.121639219067	1
0	5435	831.807827884761	0
0	5441	832.033999110912	1
0	5442	832.184041250876	0
0	5448	832.659997250822	1
0	5449	833.121639219067	0
0	5452	833.531254928061	1
0	5453	833.531254928061	2
0	5454	833.807827884761	1
0	5456	834.033999110912	0
0	5466	834.957774269393	1
0	5467	834.957774269393	2
0	5468	835.121639219067	1
0	5470	835.807827884761	0
0	5476	836.514827055557	1
0	5477	836.681254995175	0
0	5490	838.084955850093	1
0	5491	838.514827055557	0
0	5497	839.140217306258	1
0	5498	839.336331998362	0
0	5546	847.161711267507	1
0	5547	847.400112232405	0
0	5553	848.706783123592	1
0	5554	848.955369222528	0
0	5574	852.546912356667	1
0	5575	852.580147446674	0
0	5595	855.640129625268	1
0	5596	856.351004510062	0
0	5602	856.497373366326	1
0	5603	856.654666100148	0
0	5630	860.234817935899	1
0	5631	860.549916681162	0
0	5637	860.763770696526	1
0	5639	861.560562791547	2
0	5640	861.560562791547	3
0	5641	861.824544105015	2
0	5642	861.824544105015	1
0	5646	861.91987492353	2
0	5647	861.91987492353	3
0	5648	862.234817935899	2
0	5651	862.321513180593	3
0	5652	862.321513180593	4
0	5653	862.549916681162	3
0	5655	862.763770696526	2
0	5658	863.527464632809	3
0	5659	863.527464632809	4
0	5660	863.824544105015	3
0	5661	863.824544105015	2
0	5664	864.234817935899	1
0	5666	864.549916681162	0
0	5672	865.113257702493	1
0	5674	865.573077949226	2
0	5675	865.573077949226	3
0	5676	865.824544105015	2
0	5677	865.824544105015	1
0	5680	866.234817935899	0
0	5728	876.457131546671	1
0	5730	876.557543187178	2
0	5731	876.557543187178	3
0	5732	876.595802619448	2
0	5733	876.595802619448	1
0	5736	877.846461643954	0
0	5742	877.910641274577	1
0	5744	878.275285497673	2
0	5745	878.275285497673	3
0	5746	878.457131546671	2
0	5748	878.595802619448	1
0	5749	878.595802619448	0
0	5753	879.250904512104	1
0	5754	879.250904512104	2
0	5755	879.846461643954	1
0	5757	879.910641274577	0
0	5805	888.022389573185	1
0	5807	888.190294373875	2
0	5808	888.190294373875	3
0	5809	888.230587086653	2
0	5810	888.230587086653	1
0	5813	888.942517126424	0
0	5819	889.167155166535	1