version 3
run MMc-35-20221127-11:38:42-21264
attr configname MMc
attr datetime 20221127-11:38:42
attr datetimef 20221127-113842
attr experiment MMc
attr inifile omnetpp.ini
attr iterationvars "$mean=uniform(0.5s, 1.5s), $dev=0.5*(uniform(0.5s, 1.5s)), $time=2.0, $num=5, $0=33434, $1=56673, $2=23567"
attr iterationvarsd mean=uniform(0.5s,_1.5s)/dev=0.5#2a(uniform(0.5s,_1.5s))/time=2.0/num=5/33434/56673/23567
attr iterationvarsf mean=uniform(0.5s,_1.5s),dev=0.5#2a(uniform(0.5s,_1.5s)),time=2.0,num=5,33434,56673,23567-
attr measurement "$mean=uniform(0.5s, 1.5s), $dev=0.5*(uniform(0.5s, 1.5s)), $time=2.0, $num=5, $0=33434, $1=56673, $2=23567"
attr network MMc
attr processid 21264
attr repetition 3
attr replication #3
attr resultdir results
attr runnumber 35
attr seedset 35
itervar dev "0.5*(uniform(0.5s, 1.5s))"
itervar mean "uniform(0.5s, 1.5s)"
itervar num 5
itervar time 2.0
config description "MMc module"
config network MMc
config MMc.source.interArrivalTime "truncnormal(uniform(0.5s, 1.5s), 0.5*(uniform(0.5s, 1.5s)))"
config MMc.mmc.serviceTime 2.0s
config MMc.mmc.c 5
config MMc.mmc.capacity 10000
config record-eventlog false
config **.scalar-recording true
config **.vector-recording true
config repeat 4
config seed-1-mt 33434
config seed-2-mt 56673
config seed-3-mt 23567
config output-vector-file MMc-5-2.0-results/3.vec
config output-scalar-file MMc-5-2.0-results/3.sca

vector 0 MMc.mmc queueLength:vector ETV
attr interpolationmode none
attr recordingmode vector
attr title "queue length"
vector 1 MMc.mmc util:vector ETV
attr interpolationmode none
attr recordingmode vector
attr title resources
0	0	0	0
0	9	11.803946376816	1
0	10	12	0
0	65	22.094741030799	1
0	66	22.45967583588	0
0	72	23.170038140157	1
0	74	23.268202178597	2
0	75	23.268202178597	3
0	77	23.539202819936	4
0	78	23.539202819936	5
0	79	23.705912794905	4
0	80	23.705912794905	3
0	83	24.094741030799	2
0	86	24.173453012576	3
0	87	24.173453012576	4
0	88	24.45967583588	3
0	91	24.982484632154	4
0	92	24.982484632154	5
0	93	25.170038140157	4
0	95	25.705912794905	3
0	96	25.705912794905	2
0	99	26.094741030799	1
0	101	26.45967583588	0
0	104	27.018753440277	1
0	105	27.018753440277	2
0	106	27.170038140157	1
0	108	27.705912794905	0
0	121	28.894734747592	1
0	122	29.170038140157	0
0	170	37.279578202566	1
0	171	37.421422153265	0
0	184	39.139992717579	1
0	185	39.279578202566	0
0	191	39.949820593519	1
0	192	40.30619746843	0
0	198	40.483300427661	1
0	200	41.099160524305	2
0	201	41.099160524305	3
0	202	41.139992717579	2
0	204	41.279578202566	1
0	206	41.949820593519	0
0	247	48.524096758799	1
0	248	48.859899856706	0
0	254	50.285123951003	1
0	255	50.308324070345	0
0	282	54.531969161403	1
0	283	54.607682050095	0
0	303	57.587007744321	1
0	304	58.028325986135	0
0	331	62.231246393355	1
0	332	62.488832377151	0
0	338	63.170030246704	1
0	339	63.619756236986	0
0	436	81.372052817754	1
0	438	82.311194585093	2
0	439	82.311194585093	3
0	440	82.398865500554	2
0	441	82.398865500554	1
0	445	82.757435349492	2
0	446	82.757435349492	3
0	447	82.861931408706	2
0	448	82.861931408706	1
0	451	83.372052817754	0
0	454	83.857471557895	1
0	455	83.857471557895	2
0	456	84.398865500554	1
0	457	84.398865500554	0
0	461	84.607204068515	1
0	462	84.607204068515	2
0	463	84.861931408706	1
0	464	84.861931408706	0
0	468	85.191210035582	1
0	469	85.191210035582	2
0	470	85.372052817754	1
0	473	85.478210966554	2
0	474	85.478210966554	3
0	475	86.398865500554	2
0	476	86.398865500554	1
0	479	86.861931408706	0
0	485	87.36892332552	1
0	486	87.372052817754	0
0	506	90.672235148956	1
0	507	90.901904378588	0
0	527	94.470151640204	1
0	528	94.484819295529	0
0	562	99.788098145527	1
0	564	100.652991585822	2
0	565	100.652991585822	3
0	566	101.016219797181	2
0	567	101.016219797181	1
0	570	101.758069702276	0
0	646	117.667672156707	1
0	647	117.674743269744	0
0	667	121.584486820344	1
0	668	121.756105992549	0
0	688	124.77721942558	1
0	690	124.962489961641	2
0	691	124.962489961641	3
0	692	125.286267162867	2
0	693	125.286267162867	1
0	696	126.302585531855	0
0	702	126.420996003203	1
0	703	126.77721942558	0
0	713	127.962412117631	1
0	714	127.962412117631	2
0	715	128.302585531855	1
0	717	128.420996003203	0
0	751	136.755804404565	1
0	752	136.915897913983	0
0	793	143.564675629374	1
0	794	143.90569602657	0
0	800	143.986774697047	1
0	802	144.726398625151	2
0	803	144.726398625151	3
0	804	145.123263578394	2
0	805	145.123263578394	1
0	808	145.564675629374	0
0	811	145.703929914483	1
0	812	145.703929914483	2
0	813	145.90569602657	1
0	815	145.986774697047	0
0	818	146.006090625917	1
0	819	146.006090625917	2
0	821	146.895579068106	3
0	822	146.895579068106	4
0	823	147.123263578394	3
0	824	147.123263578394	2
0	827	147.564675629374	1
0	829	147.90569602657	0
0	835	148.401478116159	1
0	836	149.123263578394	0
0	856	152.301140550947	1
0	857	152.525321917531	0
0	863	153.651178002672	1
0	864	153.940607627319	0
0	898	159.82294666898	1
0	900	160.202809950169	2
0	901	160.202809950169	3
0	902	160.225813339855	2
0	903	160.225813339855	1
0	906	160.909630827326	0
0	912	161.162835457808	1
0	913	161.82294666898	0
0	940	165.227810384422	1
0	941	165.500563872737	0
0	947	166.191509219995	1
0	948	166.714928326894	0
0	954	167.115586177958	1
0	955	167.227810384422	0
0	961	167.551878698775	1
0	963	168.045970154835	2
0	964	168.045970154835	3
0	965	168.191509219995	2
0	967	168.714928326894	1
0	970	169.035485010744	2
0	971	169.035485010744	3
0	972	169.115586177958	2
0	974	169.227810384422	1
0	976	169.551878698775	0
0	979	170.037188821293	1
0	980	170.037188821293	2
0	981	170.191509219995	1
0	983	170.714928326894	0
0	1017	175.590270813128	1
0	1018	176.223193201375	0
0	1052	181.410184262182	1
0	1053	182.352448006014	0
0	1059	182.869563642125	1
0	1060	183.267271498087	0
0	1087	186.638215488341	1
0	1088	187.988613438278	0
0	1115	190.842118341248	1
0	1116	190.924441436885	0
0	1122	191.744323488142	1
0	1123	192.380989740254	0
0	1129	192.618899234748	1
0	1130	192.842118341248	0
0	1140	194.160959859218	1
0	1141	194.160959859218	2
0	1142	194.380989740254	1
0	1144	194.618899234748	0
0	1150	195.657434143985	1
0	1151	195.888027721852	0
0	1164	196.736191920223	1
0	1165	197.657434143985	0
0	1171	197.92429778486	1
0	1172	198.499288071013	0
0	1262	212.673587188502	1
0	1264	214.146286798604	2
0	1265	214.146286798604	3
0	1266	214.297629369904	2
0	1267	214.297629369904	1
0	1270	214.511347359446	0
0	1290	217.81408457298	1
0	1291	217.911109272834	0
0	1332	224.581793517944	1
0	1333	225.164348957619	0
0	1353	228.092166770065	1
0	1355	228.196426545253	2
0	1356	228.196426545253	3
0	1357	228.368274137828	2
0	1358	228.368274137828	1
0	1362	228.873213352342	2
0	1363	228.873213352342	3
0	1365	229.409201320564	4
0	1366	229.409201320564	5
0	1367	229.673461385897	4
0	1368	229.673461385897	3
0	1371	230.092166770065	2
0	1373	230.368274137828	1
0	1374	230.368274137828	0
0	1378	230.65452122175	1
0	1379	230.65452122175	2
0	1381	231.010446617269	3
0	1382	231.010446617269	4
0	1383	231.673461385897	3
0	1384	231.673461385897	2
0	1388	231.744110546483	3
0	1389	231.744110546483	4
0	1390	232.092166770065	3
0	1393	232.23066050038	4
0	1394	232.23066050038	5
0	1395	232.368274137828	4
0	1396	232.368274137828	3
0	1399	233.673461385897	2
0	1400	233.673461385897	1
0	1403	234.092166770065	0
0	1413	235.544423504855	1
0	1414	235.544423504855	2
0	1415	235.673461385897	1
0	1416	235.673461385897	0
0	1423	236.294759593915	1
0	1424	236.396693035004	0
0	1430	237.61744840453	1
0	1431	237.673461385897	0
0	1465	242.609646705553	1
0	1466	242.816949692131	0
0	1472	243.449026559557	1
0	1474	244.144489965994	2
0	1475	244.144489965994	3
0	1476	244.206359345111	2
0	1477	244.206359345111	1
0	1480	244.609646705553	0
0	1486	245.140916290183	1
0	1487	245.449026559557	0
0	1490	246.114643766323	1
0	1491	246.114643766323	2
0	1492	246.206359345111	1
0	1493	246.206359345111	0
0	1514	249.234903553858	1
0	1515	249.467590921448	0
0	1528	250.757086967777	1
0	1530	251.230631295064	2
0	1531	251.230631295064	3
0	1532	251.234903553858	2
0	1534	251.467590921448	1
0	1536	252.435964195962	0
0	1546	253.054397925218	1
0	1547	253.054397925218	2
0	1548	253.234903553858	1
0	1550	253.467590921448	0
0	1553	254.369759847125	1
0	1554	254.369759847125	2
0	1555	254.435964195962	1
0	1557	254.822832014364	0
0	1584	259.889074788099	1
0	1585	260.049271955732	0
0	1633	267.406502389824	1
0	1634	267.922480546284	0
0	1640	268.785688687536	1
0	1642	269.26263000417	2
0	1643	269.26263000417	3
0	1644	269.321546284136	2
0	1645	269.321546284136	1
0	1648	269.406502389824	0
0	1654	270.172798884519	1
0	1655	270.785688687536	0
0	1658	271.086483537087	1
0	1659	271.086483537087	2
0	1660	271.321546284136	1
0	1661	271.321546284136	0
0	1668	272.137345711805	1
0	1669	272.172798884519	0
0	1672	272.265708091729	1
0	1673	272.265708091729	2
0	1674	272.785688687536	1
0	1676	273.321546284136	0
0	1682	273.812043022235	1
0	1683	274.137345711805	0
0	1696	275.545499750197	1
0	1697	275.812043022235	0
0	1703	276.433892506305	1
0	1704	276.96889372132	0
0	1710	277.371276225059	1
0	1711	277.545499750197	0
0	1717	277.897953475885	1
0	1718	278.433892506305	0
0	1721	278.520494500792	1
0	1722	278.520494500792	2
0	1723	278.96889372132	1
0	1725	279.371276225059	0
0	1731	279.683194107966	1
0	1732	279.897953475885	0
0	1735	280.157676058389	1
0	1736	280.157676058389	2
0	1737	280.433892506305	1
0	1739	280.96889372132	0
0	1742	281.245592022263	1
0	1743	281.245592022263	2
0	1744	281.371276225059	1
0	1747	281.378331053887	2
0	1748	281.378331053887	3
0	1749	281.683194107966	2
0	1751	281.897953475885	1
0	1754	282.108473478521	2
0	1755	282.108473478521	3
0	1756	282.433892506305	2
0	1759	282.683383895967	3
0	1760	282.683383895967	4
0	1761	282.96889372132	3
0	1764	283.289354421806	4
0	1765	283.289354421806	5
0	1766	283.371276225059	4
0	1769	283.446846689799	5
0	1770	283.446846689799	6
0	1771	283.683194107966	5
0	1773	283.897953475885	4
0	1775	284.433892506305	3
0	1778	284.880852831156	4
0	1779	284.880852831156	5
0	1780	284.96889372132	4
0	1782	285.371276225059	3
0	1784	285.683194107966	2
0	1786	285.897953475885	1
0	1788	286.433892506305	0
0	1808	289.451288007978	1
0	1809	289.716316597403	0
0	1829	292.972744509401	1
0	1830	293.090740602871	0
0	1836	293.393492383757	1
0	1837	294.765608302966	0
0	1850	295.136067531118	1
0	1851	295.393492383757	0
0	1854	296.632781127783	1
0	1855	296.632781127783	2
0	1856	296.765608302966	1
0	1858	296.999911112762	0
0	1878	299.905818421501	1
0	1879	300.138282569013	0
0	1962	315.563589771738	1
0	1963	315.724935564693	0
0	1969	315.80825604818	1
0	1970	316.940629559118	0
0	1997	321.240402431247	1
0	1998	321.598207977434	0
0	2004	322.041164218457	1
0	2005	322.973179430875	0
0	2039	327.849354523376	1
0	2040	327.903533699725	0
0	2046	328.571402386596	1
0	2047	328.962961914501	0
0	2053	329.794989754665	1
0	2054	329.849354523376	0
0	2060	329.954696530765	1
0	2062	330.139464136754	2
0	2063	330.139464136754	3
0	2064	330.571402386596	2
0	2066	330.962961914501	1
0	2069	331.221692900412	2
0	2070	331.221692900412	3
0	2071	331.794989754665	2
0	2073	331.849354523376	1
0	2075	331.954696530765	0
0	2081	332.65198577095	1
0	2082	332.962961914501	0
0	2137	341.647741073097	1
0	2138	342.645770017979	0
0	2144	342.697499982484	1
0	2145	343.450000886121	0
0	2186	351.139370215362	1
0	2187	351.194169525598	0
0	2193	351.794331977693	1
0	2195	352.298246066931	2
0	2196	352.298246066931	3
0	2197	352.299943541985	2
0	2198	352.299943541985	1
0	2201	353.139370215362	0
0	2204	353.192253001773	1
0	2205	353.192253001773	2
0	2206	353.194169525598	1
0	2208	353.794331977693	0
0	2211	354.002120677348	1
0	2212	354.002120677348	2
0	2213	354.299943541985	1
0	2214	354.299943541985	0
0	2228	355.802007270919	1
0	2229	356.299943541985	0
0	2235	356.485335146637	1
0	2236	357.212152809738	0
0	2242	357.577121664429	1
0	2243	357.802007270919	0
0	2263	360.542259249307	1
0	2264	360.891264381016	0
0	2284	363.552136854225	1
0	2286	363.937190519032	2
0	2287	363.937190519032	3
0	2288	364.286222548646	2
0	2289	364.286222548646	1
0	2293	365.032157732094	2
0	2294	365.032157732094	3
0	2295	365.188644624366	2
0	2296	365.188644624366	1
0	2299	365.552136854225	0
0	2302	366.197569506487	1
0	2303	366.197569506487	2
0	2304	366.286222548646	1
0	2305	366.286222548646	0
0	2375	377.953657575056	1
0	2376	378.625197213571	0
0	2382	378.770145498785	1
0	2384	379.475800826972	2
0	2385	379.475800826972	3
0	2386	379.716720785304	2
0	2387	379.716720785304	1
0	2390	379.953657575056	0
0	2410	383.589624192586	1
0	2411	383.699206120778	0
0	2417	384.823644070208	1
0	2418	384.89527543193	0
0	2431	386.805754498877	1
0	2432	386.823644070208	0
0	2466	392.086521000104	1
0	2467	392.462712109018	0
0	2494	397.753951153724	1
0	2495	397.786503819175	0
0	2522	402.196056935557	1
0	2523	402.815467073928	0
0	2543	405.704452180287	1
0	2544	406.440787174729	0
0	2550	406.985061817516	1
0	2551	407.022494740146	0
0	2557	407.572353079334	1
0	2558	407.704452180287	0
0	2564	408.570257568161	1
0	2565	408.985061817516	0
0	2585	412.14612680077	1
0	2586	412.316267060779	0
0	2592	413.369736163745	1
0	2593	413.411941921403	0
0	2606	415.176923573013	1
0	2607	415.369736163745	0
0	2613	415.804588249571	1
0	2615	416.130411387043	2
0	2616	416.130411387043	3
0	2618	416.245259126212	4
0	2619	416.245259126212	5
0	2620	416.26593884793	4
0	2621	416.26593884793	3
0	2624	417.176923573013	2
0	2627	417.198008504905	3
0	2628	417.198008504905	4
0	2629	417.369736163745	3
0	2631	417.804588249571	2
0	2634	418.035496161344	3
0	2635	418.035496161344	4
0	2636	418.26593884793	3
0	2637	418.26593884793	2
0	2640	419.176923573013	1
0	2642	419.369736163745	0
0	2645	419.652978583386	1
0	2646	419.652978583386	2
0	2647	419.804588249571	1
0	2649	420.26593884793	0
0	2655	420.420081513601	1
0	2657	421.054539950698	2
0	2658	421.054539950698	3
0	2659	421.176923573013	2
0	2662	421.254973021735	3
0	2663	421.254973021735	4
0	2664	421.369736163745	3
0	2667	421.61471321467	4
0	2668	421.61471321467	5
0	2669	421.804588249571	4
0	2671	422.26593884793	3
0	2673	422.420081513601	2
0	2676	422.766916333957	3
0	2677	422.766916333957	4
0	2678	423.176923573013	3
0	2680	423.369736163745	2
0	2682	423.804588249571	1
0	2684	424.26593884793	0
0	2687	424.284953366855	1
0	2688	424.284953366855	2
0	2689	424.420081513601	1
0	2691	425.176923573013	0
0	2739	433.603626762144	1
0	2740	434.13297620978	0
0	2746	434.737010493948	1
0	2747	435.38251576016	0
0	2753	435.475871581757	1
0	2754	435.603626762144	0
0	2764	436.92497930952	1
0	2765	436.92497930952	2
0	2766	437.38251576016	1
0	2768	437.475871581757	0
0	2774	438.236308815876	1
0	2775	438.801689328323	0
0	2781	438.878608592105	1
0	2782	439.38251576016	0
0	2802	442.012860109657	1
0	2803	442.539508348412	0
0	2809	442.619935961919	1
0	2810	443.275028100084	0
0	2816	443.897786313286	1
0	2817	444.012860109657	0
0	2900	458.792283683688	1
0	2901	458.916287251768	0
0	2942	465.068634617059	1
0	2944	465.648693667618	2
0	2945	465.648693667618	3
0	2946	465.840714447618	2
0	2947	465.840714447618	1
0	2951	466.502926544159	2
0	2952	466.502926544159	3
0	2953	466.817949168395	2
0	2954	466.817949168395	1
0	2957	467.068634617059	0
0	2960	467.581145141793	1
0	2961	467.581145141793	2
0	2962	467.840714447618	1
0	2963	467.840714447618	0
0	2967	468.766738710466	1
0	2968	468.766738710466	2
0	2969	468.817949168395	1
0	2970	468.817949168395	0
0	2991	472.52184972173	1
0	2992	472.633674844223	0
0	2998	472.779494876963	1
0	3000	473.510489271858	2
0	3001	473.510489271858	3
0	3002	473.913173849602	2
0	3003	473.913173849602	1
0	3006	474.52184972173	0
0	3016	475.857265672722	1
0	3017	475.857265672722	2
0	3019	475.903497987316	3
0	3020	475.903497987316	4
0	3021	475.913173849602	3
0	3022	475.913173849602	2
0	3026	476.022299230708	3
0	3027	476.022299230708	4
0	3028	476.52184972173	3
0	3030	476.973668802494	2
0	3031	476.973668802494	1
0	3035	477.448081153727	2
0	3036	477.448081153727	3
0	3037	477.913173849602	2
0	3038	477.913173849602	1
0	3042	478.203559773622	2
0	3043	478.203559773622	3
0	3045	478.294145389558	4
0	3046	478.294145389558	5
0	3047	478.52184972173	4
0	3049	478.973668802494	3
0	3050	478.973668802494	2
0	3054	479.516957179483	3
0	3055	479.516957179483	4
0	3056	479.913173849602	3
0	3057	479.913173849602	2
0	3061	480.091483227582	3
0	3062	480.091483227582	4
0	3063	480.52184972173	3
0	3065	480.973668802494	2
0	3066	480.973668802494	1
0	3070	481.55082509199	2
0	3071	481.55082509199	3
0	3072	481.913173849602	2
0	3073	481.913173849602	1
0	3076	482.52184972173	0
0	3086	483.406537844824	1
0	3087	483.406537844824	2
0	3089	483.857930962113	3
0	3090	483.857930962113	4
0	3091	483.913173849602	3
0	3092	483.913173849602	2
0	3095	484.52184972173	1
0	3097	485.063007028098	0
0	3103	485.558300773597	1
0	3104	485.913173849602	0
0	3124	488.614413438389	1
0	3125	488.879112705869	0
0	3131	489.09709464722	1
0	3132	490.507592839963	0
0	3180	498.757283973227	1
0	3181	498.807311678991	0
0	3187	499.138689578108	1
0	3188	500.088039468336	0
0	3194	500.600589547558	1
0	3195	500.757283973227	0
0	3222	505.588429338347	1
0	3223	505.73278907377	0
0	3229	506.042176052197	1
0	3230	506.592012057906	0
0	3240	507.704720938657	1
0	3241	507.704720938657	2
0	3242	507.73278907377	1
0	3244	508.042176052197	0
0	3247	508.58421456297	1
0	3248	508.58421456297	2
0	3249	508.592012057906	1
0	3251	509.624594809327	0
0	3278	514.227281034032	1
0	3279	514.730726515743	0
0	3285	515.204043343722	1
0	3286	515.512385072824	0
0	3299	517.029810430821	1
0	3300	517.204043343722	0
0	3306	518.129735850636	1
0	3307	518.312065226091	0
0	3313	518.756086291134	1
0	3314	519.029810430821	0
0	3320	519.799255117138	1
0	3321	520.129735850636	0
0	3341	523.449627669984	1
0	3342	523.9510831044	0
0	3348	524.647505940537	1
0	3349	525.103496110782	0
0	3390	531.033764564217	1
0	3391	531.48417208697	0
0	3397	532.566388887767	1
0	3398	532.956799919665	0
0	3425	536.822751362579	1
0	3426	537.440391671484	0
0	3446	540.167799557438	1
0	3448	540.313708820875	2
0	3449	540.313708820875	3
0	3450	540.943250979495	2
0	3451	540.943250979495	1
0	3454	541.808117606084	0
0	3460	541.9152176505	1
0	3461	542.167799557438	0
0	3464	542.562826662732	1
0	3465	542.562826662732	2
0	3466	542.943250979495	1
0	3467	542.943250979495	0
0	3481	544.368241680685	1
0	3482	544.943250979495	0
0	3488	545.846863914873	1
0	3489	546.023833624053	0
0	3516	550.068347855441	1
0	3517	551.064977191206	0
0	3523	551.159059711741	1
0	3524	551.822800944994	0
0	3530	551.932246369938	1
0	3531	552.068347855441	0
0	3558	557.547399099112	1
0	3559	558.029878024262	0
0	3565	558.375127731933	1
0	3567	559.078183952141	2
0	3568	559.078183952141	3
0	3569	559.128909543462	2
0	3570	559.128909543462	1
0	3573	559.547399099112	0
0	3576	559.90294194341	1
0	3577	559.90294194341	2
0	3578	560.029878024262	1
0	3580	560.375127731933	0
0	3583	560.789054480476	1
0	3584	560.789054480476	2
0	3586	561.075942088909	3
0	3587	561.075942088909	4
0	3588	561.128909543462	3
0	3589	561.128909543462	2
0	3593	561.172161751435	3
0	3594	561.172161751435	4
0	3596	561.541342530175	5
0	3597	561.541342530175	6
0	3598	561.547399099112	5
0	3600	562.029878024262	4
0	3602	562.375127731933	3
0	3604	563.128909543462	2
0	3605	563.128909543462	1
0	3609	563.311794821688	2
0	3610	563.311794821688	3
0	3611	563.547399099112	2
0	3614	563.772685786197	3
0	3615	563.772685786197	4
0	3616	564.029878024262	3
0	3619	564.091876360219	4
0	3620	564.091876360219	5
0	3621	564.375127731933	4
0	3623	565.128909543462	3
0	3624	565.128909543462	2
0	3627	565.547399099112	1
0	3630	565.591766060931	2
0	3631	565.591766060931	3
0	3632	566.029878024262	2
0	3634	566.375127731933	1
0	3637	567.015647437945	2
0	3638	567.015647437945	3
0	3639	567.128909543462	2
0	3640	567.128909543462	1
0	3644	567.243237609964	2
0	3645	567.243237609964	3
0	3647	567.522632500826	4
0	3648	567.522632500826	5
0	3649	567.547399099112	4
0	3651	568.029878024262	3
0	3653	568.375127731933	2
0	3656	568.927309474193	3
0	3657	568.927309474193	4
0	3658	569.128909543462	3
0	3659	569.128909543462	2
0	3662	569.547399099112	1
0	3665	569.845916842312	2
0	3666	569.845916842312	3
0	3667	570.029878024262	2
0	3669	570.375127731933	1
0	3671	571.128909543462	0
0	3677	571.357609631236	1
0	3678	571.547399099112	0
0	3684	572.057194285854	1
0	3686	572.337819785373	2
0	3687	572.337819785373	3
0	3688	572.375127731933	2
0	3690	573.128909543462	1
0	3693	573.269690364255	2
0	3694	573.269690364255	3
0	3695	573.357609631236	2
0	3697	573.547399099112	1
0	3699	574.057194285854	0
0	3702	574.214480694111	1
0	3703	574.214480694111	2
0	3704	574.375127731933	1
0	3706	575.128909543462	0
0	3709	575.237622506437	1
0	3710	575.237622506437	2
0	3712	575.338357329294	3
0	3713	575.338357329294	4
0	3714	575.357609631236	3
0	3716	575.547399099112	2
0	3718	576.057194285854	1
0	3720	576.375127731933	0
0	3740	579.558273647888	1
0	3741	579.650775358727	0
0	3747	580.788683440713	1
0	3748	581.02879165669	0
0	3782	586.791853093668	1
0	3783	587.470685549986	0
0	3803	589.828100060233	1
0	3804	590.526964699596	0
0	3810	591.550184427751	1
0	3811	591.571159499743	0
0	3821	592.436531409819	1
0	3822	592.436531409819	2
0	3823	592.526964699596	1
0	3825	593.550184427751	0
0	3831	593.836611282091	1
0	3832	594.373247048602	0
0	3859	598.411785500408	1
0	3860	598.948358146056	0
0	3880	602.018347746697	1
0	3881	602.861842856116	0
0	3887	603.122219206815	1
0	3889	603.5822016767	2
0	3890	603.5822016767	3
0	3891	603.585448615664	2
0	3892	603.585448615664	1
0	3895	604.018347746697	0
0	3898	604.217299715591	1
0	3899	604.217299715591	2
0	3900	604.861842856116	1
0	3902	605.122219206815	0
0	3905	605.317802530583	1
0	3906	605.317802530583	2
0	3908	605.4461105168	3
0	3909	605.4461105168	4
0	3910	605.585448615664	3
0	3911	605.585448615664	2
0	3914	606.018347746697	1
0	3917	606.713981077118	2
0	3918	606.713981077118	3
0	3920	606.805443725989	4
0	3921	606.805443725989	5
0	3922	606.861842856116	4
0	3924	607.122219206815	3
0	3926	607.585448615664	2
0	3927	607.585448615664	1
0	3930	608.018347746697	0
0	3933	608.243440702881	1
0	3934	608.243440702881	2
0	3936	608.810350677086	3
0	3937	608.810350677086	4
0	3938	608.861842856116	3
0	3940	609.122219206815	2
0	3943	609.306901102076	3
0	3944	609.306901102076	4
0	3945	609.585448615664	3
0	3946	609.585448615664	2
0	3949	610.018347746697	1
0	3951	610.861842856116	0
0	3957	611.257034515432	1
0	3958	611.585448615664	0
0	3985	615.934285185408	1
0	3986	616.462763821993	0
0	3992	616.70962309649	1
0	3993	616.974769568734	0
0	4027	622.910773524111	1
0	4028	623.698343980306	0
0	4034	623.874203617775	1
0	4035	624.217196305816	0
0	4062	629.549717364574	1
0	4064	629.563705511896	2
0	4065	629.563705511896	3
0	4066	629.936374097621	2
0	4067	629.936374097621	1
0	4071	630.1579703998	2
0	4072	630.1579703998	3
0	4073	630.398146227778	2
0	4074	630.398146227778	1
0	4078	631.282672956827	2
0	4079	631.282672956827	3
0	4080	631.549717364574	2
0	4082	631.936374097621	1
0	4083	631.936374097621	0
0	4087	631.979892875893	1
0	4088	631.979892875893	2
0	4089	632.398146227778	1
0	4090	632.398146227778	0
0	4094	632.522038095981	1
0	4095	632.522038095981	2
0	4096	633.549717364574	1
0	4098	633.936374097621	0
0	4104	634.244408413079	1
0	4105	634.398146227778	0
0	4160	645.116991173877	1
0	4161	645.619032011845	0
0	4167	645.623945513388	1
0	4169	646.117335153102	2
0	4170	646.117335153102	3
0	4171	646.44386480711	2
0	4172	646.44386480711	1
0	4176	646.964036735341	2
0	4177	646.964036735341	3
0	4178	647.116991173877	2
0	4181	647.503390195865	3
0	4182	647.503390195865	4
0	4183	647.619032011845	3
0	4185	647.623945513388	2
0	4187	648.44386480711	1
0	4188	648.44386480711	0
0	4192	648.741288003251	1
0	4193	648.741288003251	2
0	4194	649.116991173877	1
0	4196	649.619032011845	0
0	4202	649.98038612466	1
0	4203	650.44386480711	0
0	4209	650.816836899097	1
0	4210	651.116991173877	0
0	4237	657.107902212405	1
0	4238	657.284757527054	0
0	4251	659.00420053453	1
0	4252	659.107902212405	0
0	4279	663.738485433482	1
0	4280	664.10863841592	0
0	4286	664.507187563981	1
0	4287	664.784192638647	0
0	4293	665.222539032259	1
0	4294	665.738485433482	0
0	4300	666.308935634741	1
0	4301	666.507187563981	0
0	4307	666.996674390362	1
0	4308	667.222539032259	0
0	4314	668.110942642059	1
0	4315	668.308935634741	0
0	4321	668.925167013924	1
0	4322	668.996674390362	0
0	4325	669.174847796189	1
0	4326	669.174847796189	2
0	4327	669.222539032259	1
0	4330	669.85939614439	2
0	4331	669.85939614439	3
0	4332	670.110942642059	2
0	4334	670.308935634741	1
0	4336	670.925167013924	0
0	4384	677.25345205863	1
0	4386	677.773263076703	2
0	4387	677.773263076703	3
0	4388	678.507087711376	2
0	4389	678.507087711376	1
0	4392	679.057103340465	0
0	4398	679.133788429842	1
0	4399	679.25345205863	0
0	4419	682.251467993367	1
0	4420	682.613097177549	0
0	4454	689.42100632393	1
0	4455	689.441059797754	0
0	4461	690.183943371267	1
0	4463	690.508847925885	2
0	4464	690.508847925885	3
0	4465	690.630913244128	2
0	4466	690.630913244128	1
0	4469	691.42100632393	0
0	4496	695.228915893137	1
0	4497	695.608449663081	0
0	4503	695.847775360521	1
0	4504	696.532402517759	0
0	4552	704.466280780711	1
0	4553	704.598442539403	0
0	4587	709.207093717831	1
0	4589	709.800318678607	2
0	4590	709.800318678607	3
0	4591	709.829004164891	2
0	4592	709.829004164891	1
0	4596	710.920514984544	2
0	4597	710.920514984544	3
0	4598	711.145600270672	2
0	4599	711.145600270672	1
0	4602	711.207093717831	0
0	4636	717.943573661388	1
0	4637	718.184101015621	0
0	4692	727.022860263692	1
0	4693	727.055022840201	0
0	4741	734.999984737171	1
0	4742	735.739170951635	0
0	4748	736.103162928221	1
0	4749	736.793581527647	0
0	4769	739.351911322849	1
0	4770	739.514039686825	0
0	4776	740.566951071209	1
0	4777	740.667192277299	0
0	4853	753.45234316218	1
0	4854	753.828415225858	0
0	4860	754.308593726507	1
0	4862	754.933510936055	2
0	4863	754.933510936055	3
0	4864	754.993166333965	2
0	4865	754.993166333965	1
0	4868	755.45234316218	0
0	4895	760.641220364026	1
0	4896	760.74805776389	0
0	4902	761.18686074221	1
0	4904	761.864971552513	2
0	4905	761.864971552513	3
0	4906	762.098652259732	2
0	4907	762.098652259732	1
0	4910	762.641220364026	0
0	4937	766.018064485819	1
0	4938	766.665617171433	0
0	4944	766.951345125293	1
0	4946	767.005561626965	2
0	4947	767.005561626965	3
0	4948	767.372973463302	2
0	4949	767.372973463302	1
0	4952	768.018064485819	0
0	4955	768.249548581069	1
0	4956	768.249548581069	2
0	4957	768.665617171433	1
0	4959	768.951345125293	0
0	5007	777.509687592994	1
0	5009	777.633223960863	2
0	5010	777.633223960863	3
0	5011	777.836171083663	2
0	5012	777.836171083663	1
0	5015	778.546470502953	0
0	5021	779.493476303604	1
0	5022	779.509687592994	0
0	5056	784.437190140486	1
0	5057	784.589979407847	0
0	5063	784.780016525325	1
0	5065	785.03508603831	2
0	5066	785.03508603831	3
0	5068	785.514333115651	4
0	5069	785.514333115651	5
0	5071	785.796403105024	6
0	5072	785.796403105024	7
0	5073	786.432056308434	6
0	5074	786.432056308434	5
0	5077	786.437190140486	4
0	5079	786.589979407847	3
0	5081	786.780016525325	2
0	5084	787.315363647119	3
0	5085	787.315363647119	4
0	5086	788.432056308434	3
0	5087	788.432056308434	2
0	5090	788.437190140486	1
0	5092	788.589979407847	0
0	5098	789.903174472772	1
0	5099	790.432056308434	0
0	5147	796.445323193552	1
0	5148	797.167479050151	0
0	5154	797.657789724968	1
0	5155	798.364208093892	0
0	5175	801.218173345225	1
0	5177	801.707347547863	2
0	5178	801.707347547863	3
0	5179	802.02117716068	2
0	5180	802.02117716068	1
0	5183	802.917055294049	0
0	5203	805.294792956041	1
0	5204	805.373221291163	0
0	5210	805.713993493569	1
0	5211	806.367591847334	0
0	5217	807.182132004833	1
0	5218	807.294792956041	0
0	5287	821.251526166653	1
0	5288	821.385275744574	0
0	5308	824.610380971637	1
0	5310	824.685378559973	2
0	5311	824.685378559973	3
0	5312	824.824929305351	2
0	5313	824.824929305351	1
0	5317	825.267643020013	2
0	5318	825.267643020013	3
0	5319	825.580216032003	2
0	5320	825.580216032003	1
0	5324	825.905225157924	2
0	5325	825.905225157924	3
0	5326	826.610380971637	2
0	5328	826.824929305351	1
0	5329	826.824929305351	0
0	5333	826.969295737201	1
0	5334	826.969295737201	2
0	5335	827.580216032003	1
0	5336	827.580216032003	0
0	5340	827.796501958219	1
0	5341	827.796501958219	2
0	5342	828.610380971637	1
0	5344	828.824929305351	0
0	5357	830.346461156988	1
0	5358	830.610380971637	0
0	5364	831.548033316948	1
0	5365	831.681423873969	0
0	5420	841.560403709721	1
0	5421	841.801172590678	0
0	5476	851.019256169467	1
0	5477	851.575244643587	0
0	5483	852.128266984005	1
0	5484	852.139053772319	0
0	5504	855.461199601942	1
0	5505	855.476634419662	0
0	5567	866.979777223668	1
0	5568	867.152948310814	0
0	5574	867.404178585117	1
0	5576	867.769016846506	2
0	5577	867.769016846506	3
0	5579	867.865705794512	4
0	5580	867.865705794512	5
0	5581	867.99842833199	4
0	5582	867.99842833199	3
0	5585	868.979777223668	2
0	5587	869.152948310814	1
0	5589	869.404178585117	0
0	5592	869.438551558002	1
0	5593	869.438551558002	2
0	5594	869.99842833199	1
0	5595	869.99842833199	0
0	5616	872.921936157066	1
0	5617	873.278585570487	0
0	5623	874.003051347508	1
0	5624	874.736259336775	0
0	5644	878.002079254338	1
0	5646	878.346555609079	2
0	5647	878.346555609079	3
0	5648	878.575468618531	2
0	5649	878.575468618531	1
0	5653	878.837492602339	2
0	5654	878.837492602339	3
0	5656	879.230679757489	4
0	5657	879.230679757489	5
0	5658	879.255418061046	4
0	5659	879.255418061046	3
0	5662	880.002079254338	2
0	5665	880.560202349061	3
0	5666	880.560202349061	4
0	5667	880.575468618531	3
0	5668	880.575468618531	2
0	5672	881.134432756028	3
0	5673	881.134432756028	4
0	5674	881.255418061046	3
0	5675	881.255418061046	2
0	5678	882.002079254338	1
0	5681	882.40201959576	2
0	5682	882.40201959576	3
0	5683	882.575468618531	2
0	5684	882.575468618531	1
0	5687	883.255418061046	0
0	5693	883.766885142014	1
0	5694	884.002079254338	0
0	5728	890.67133828711	1
0	5729	890.921878484944	0
0	5798	903.805219460904	1
0	5799	904.271670083024	0
0	5805	904.921868084169	1
0	5807	905.151228869894	2
0	5808	905.151228869894	3
0	5810	905.413842427984	4
0	5811	905.413842427984	5
0	5812	905.458724783636	4
0	5813	905.458724783636	3
0	5816	905.805219460904	2
0	5819	905.862691113316	3
0	5820	905.862691113316	4
0	5821	906.271670083024	3
0	5823	906.921868084169	2
0	5825	907.458724783636	1
0	5826	907.458724783636	0