version 3
run k_MM1_rand-8-20221127-16:03:21-5740
attr configname k_MM1_rand
attr datetime 20221127-16:03:21
attr datetimef 20221127-160321
attr experiment k_MM1_rand
attr inifile omnetpp.ini
attr iterationvars "$time=1.5, $num=1, $0=53542, $1=75335, $2=34542"
attr iterationvarsd time=1.5/num=1/53542/75335/34542
attr iterationvarsf time=1.5,num=1,53542,75335,34542-
attr measurement "$time=1.5, $num=1, $0=53542, $1=75335, $2=34542"
attr network randkMM1
attr processid 5740
attr repetition 0
attr replication #0
attr resultdir results
attr runnumber 8
attr seedset 8
itervar num 1
itervar time 1.5
config description "MM1 module k-times random"
config network randkMM1
config **.source.interArrivalTime "truncnormal(0.5s, 1.5s)"
config **.serviceTime 1.5s
config **.c 1
config **.capacity 10000
config record-eventlog false
config **.scalar-recording true
config **.vector-recording true
config repeat 4
config seed-1-mt 53542
config seed-2-mt 75335
config seed-3-mt 34542
config output-vector-file k_MM1_rand-1-1.5-results/0.vec
config output-scalar-file k_MM1_rand-1-1.5-results/0.sca

vector 0 randkMM1.mm1[0] queueLength:vector ETV
attr interpolationmode none
attr recordingmode vector
attr title "queue length"
vector 1 randkMM1.mm1[0] util:vector ETV
attr interpolationmode none
attr recordingmode vector
attr title resources
0	5	10	1
0	6	11.5	0
0	16	13.542369285442	1
0	20	14.303963391809	2
0	21	14.303963391809	3
0	22	15.042369285442	2
0	28	15.552412086446	3
0	29	15.552412086446	4
0	33	15.879267342758	5
0	34	15.879267342758	6
0	38	16.539630667838	7
0	39	16.539630667838	8
0	40	16.542369285442	7
0	43	18.042369285442	6
0	49	18.305781430786	7
0	50	18.305781430786	8
0	51	19.542369285442	7
0	57	20.337579065992	8
0	58	20.337579065992	9
0	59	21.042369285442	8
0	65	21.993572897285	9
0	66	21.993572897285	10
0	67	22.542369285442	9
0	73	23.47841532808	10
0	74	23.47841532808	11
0	75	24.042369285442	10
0	78	25.542369285442	9
0	84	26.045549788942	10
0	85	26.045549788942	11
0	86	27.042369285442	10
0	89	28.542369285442	9
0	95	29.405666961256	10
0	96	29.405666961256	11
0	97	30.042369285442	10
0	103	31.181007256219	11
0	104	31.181007256219	12
0	105	31.542369285442	11
0	111	31.567130840234	12
0	112	31.567130840234	13
0	116	31.922284035453	14
0	117	31.922284035453	15
0	121	32.176932611722	16
0	122	32.176932611722	17
0	123	33.042369285442	16
0	129	33.219716803618	17
0	130	33.219716803618	18
0	131	34.542369285442	17
0	137	35.132073241731	18
0	138	35.132073241731	19
0	139	36.042369285442	18
0	142	37.542369285442	17
0	148	38.762785864489	18
0	149	38.762785864489	19
0	150	39.042369285442	18
0	156	39.083058012771	19
0	157	39.083058012771	20
0	161	39.369324728045	21
0	162	39.369324728045	22
0	163	40.542369285442	21
0	169	40.665863959513	22
0	170	40.665863959513	23
0	171	42.042369285442	22
0	177	42.371348501922	23
0	178	42.371348501922	24
0	179	43.542369285442	23
0	182	45.042369285442	22
0	188	45.353552377322	23
0	189	45.353552377322	24
0	193	45.517402710323	25
0	194	45.517402710323	26
0	195	46.542369285442	25
0	201	47.337740778925	26
0	202	47.337740778925	27
0	203	48.042369285442	26
0	209	48.212188170373	27
0	210	48.212188170373	28
0	211	49.542369285442	27
0	217	50.083548414971	28
0	218	50.083548414971	29
0	222	50.974997497574	30
0	223	50.974997497574	31
0	224	51.042369285442	30
0	230	51.334606321458	31
0	231	51.334606321458	32
0	235	52.01259315821	33
0	236	52.01259315821	34
0	240	52.506215506732	35
0	241	52.506215506732	36
0	242	52.542369285442	35
0	248	53.583501335208	36
0	249	53.583501335208	37
0	250	54.042369285442	36
0	256	54.569007884295	37
0	257	54.569007884295	38
0	261	54.751278689955	39
0	262	54.751278689955	40
0	266	55.138159225273	41
0	267	55.138159225273	42
0	268	55.542369285442	41
0	274	55.837707704087	42
0	275	55.837707704087	43
0	279	56.892762688475	44
0	280	56.892762688475	45
0	281	57.042369285442	44
0	287	57.180201923139	45
0	288	57.180201923139	46
0	292	58.010659793137	47
0	293	58.010659793137	48
0	294	58.542369285442	47
0	300	59.411042950888	48
0	301	59.411042950888	49
0	302	60.042369285442	48
0	308	61.275753570872	49
0	309	61.275753570872	50
0	310	61.542369285442	49
0	316	61.720442356643	50
0	317	61.720442356643	51
0	318	63.042369285442	50
0	321	64.542369285442	49
0	327	64.594947764309	50
0	328	64.594947764309	51
0	332	65.068600341855	52
0	333	65.068600341855	53
0	334	66.042369285442	52
0	337	67.542369285442	51
0	343	67.632295280228	52
0	344	67.632295280228	53
0	348	68.538658085037	54
0	349	68.538658085037	55
0	350	69.042369285442	54
0	353	70.542369285442	53
0	359	71.33842351991	54
0	360	71.33842351991	55
0	361	72.042369285442	54
0	367	73.24265148342	55
0	368	73.24265148342	56
0	369	73.542369285442	55
0	375	73.94825860281	56
0	376	73.94825860281	57
0	377	75.042369285442	56
0	380	76.542369285442	55
0	386	77.169422997841	56
0	387	77.169422997841	57
0	388	78.042369285442	56
0	394	78.343171246215	57
0	395	78.343171246215	58
0	399	78.935481337599	59
0	400	78.935481337599	60
0	404	79.0941552564	61
0	405	79.0941552564	62
0	409	79.144244683337	63
0	410	79.144244683337	64
0	411	79.542369285442	63
0	414	81.042369285442	62
0	420	81.886092900068	63
0	421	81.886092900068	64
0	422	82.542369285442	63
0	428	82.698932318276	64
0	429	82.698932318276	65
0	433	83.929278748237	66
0	434	83.929278748237	67
0	435	84.042369285442	66
0	441	84.55305671573	67
0	442	84.55305671573	68
0	443	85.542369285442	67
0	446	87.042369285442	66
0	452	87.195027631708	67
0	453	87.195027631708	68
0	454	88.542369285442	67
0	460	89.245711499082	68
0	461	89.245711499082	69
0	462	90.042369285442	68
0	465	91.542369285442	67
0	468	93.042369285442	66
0	474	93.850557470799	67
0	475	93.850557470799	68
0	476	94.542369285442	67
0	479	96.042369285442	66
0	485	96.686613436903	67
0	486	96.686613436903	68
0	490	96.705161331024	69
0	491	96.705161331024	70
0	492	97.542369285442	69
0	498	97.583547773839	70
0	499	97.583547773839	71
0	500	99.042369285442	70
0	506	100.304598043805	71
0	507	100.304598043805	72
0	508	100.542369285442	71
0	514	101.725607254364	72
0	515	101.725607254364	73
0	516	102.042369285442	72
0	522	102.128279546427	73
0	523	102.128279546427	74
0	527	102.662005755881	75
0	528	102.662005755881	76
0	529	103.542369285442	75
0	535	103.897017096882	76
0	536	103.897017096882	77
0	537	105.042369285442	76
0	543	106.413960355837	77
0	544	106.413960355837	78
0	548	106.422133635694	79
0	549	106.422133635694	80
0	550	106.542369285442	79
0	556	106.562597149778	80
0	557	106.562597149778	81
0	558	108.042369285442	80
0	564	108.086569717806	81
0	565	108.086569717806	82
0	569	108.210221997853	83
0	570	108.210221997853	84
0	571	109.542369285442	83
0	577	109.647885953495	84
0	578	109.647885953495	85
0	579	111.042369285442	84
0	585	111.212414899433	85
0	586	111.212414899433	86
0	590	111.262324010155	87
0	591	111.262324010155	88
0	595	112.414215770199	89
0	596	112.414215770199	90
0	597	112.542369285442	89
0	603	113.79820173684	90
0	604	113.79820173684	91
0	605	114.042369285442	90
0	608	115.542369285442	89
0	614	116.077400233135	90
0	615	116.077400233135	91
0	619	117.024861697611	92
0	620	117.024861697611	93
0	621	117.042369285442	92
0	624	118.542369285442	91
0	630	118.633295437055	92
0	631	118.633295437055	93
0	632	120.042369285442	92
0	638	120.220692235856	93
0	639	120.220692235856	94
0	640	121.542369285442	93
0	646	122.860478336025	94
0	647	122.860478336025	95
0	651	122.861664426706	96
0	652	122.861664426706	97
0	653	123.042369285442	96
0	656	124.542369285442	95
0	662	124.69355501793	96
0	663	124.69355501793	97
0	667	125.346934536992	98
0	668	125.346934536992	99
0	672	125.528475016803	100
0	673	125.528475016803	101
0	674	126.042369285442	100
0	680	127.329721168618	101
0	681	127.329721168618	102
0	682	127.542369285442	101
0	685	129.042369285442	100
0	691	129.647842323012	101
0	692	129.647842323012	102
0	696	130.48331324319	103
0	697	130.48331324319	104
0	698	130.542369285442	103
0	704	130.706833374568	104
0	705	130.706833374568	105
0	709	131.76299855072	106
0	710	131.76299855072	107
0	711	132.042369285442	106
0	717	132.051912626751	107
0	718	132.051912626751	108
0	722	132.917620920781	109
0	723	132.917620920781	110
0	727	133.031201365206	111
0	728	133.031201365206	112
0	732	133.426013693504	113
0	733	133.426013693504	114
0	734	133.542369285442	113
0	737	135.042369285442	112
0	743	135.174520524375	113
0	744	135.174520524375	114
0	745	136.542369285442	113
0	751	137.763478951027	114
0	752	137.763478951027	115
0	753	138.042369285442	114
0	756	139.542369285442	113
0	762	140.252837328072	114
0	763	140.252837328072	115
0	764	141.042369285442	114
0	767	142.542369285442	113
0	773	142.953782803798	114
0	774	142.953782803798	115
0	778	144.000544662226	116
0	779	144.000544662226	117
0	780	144.042369285442	116
0	783	145.542369285442	115
0	786	147.042369285442	114
0	792	147.398374041956	115
0	793	147.398374041956	116
0	797	148.495578323453	117
0	798	148.495578323453	118
0	799	148.542369285442	117
0	802	150.042369285442	116
0	808	151.095603081813	117
0	809	151.095603081813	118
0	810	151.542369285442	117
0	816	152.641026199635	118
0	817	152.641026199635	119
0	818	153.042369285442	118
0	824	153.089374843605	119
0	825	153.089374843605	120
0	829	154.540712421358	121
0	830	154.540712421358	122
0	831	154.542369285442	121
0	837	155.004145875817	122
0	838	155.004145875817	123
0	839	156.042369285442	122
0	845	156.906847750793	123
0	846	156.906847750793	124
0	847	157.542369285442	123
0	853	158.730521426967	124
0	854	158.730521426967	125
0	855	159.042369285442	124
0	861	159.692925416113	125
0	862	159.692925416113	126
0	863	160.542369285442	125
0	869	161.097353087636	126
0	870	161.097353087636	127
0	871	162.042369285442	126
0	877	162.184152747918	127
0	878	162.184152747918	128
0	882	163.445167658237	129
0	883	163.445167658237	130
0	884	163.542369285442	129
0	887	165.042369285442	128
0	893	165.523969708081	129
0	894	165.523969708081	130
0	898	165.984155373757	131
0	899	165.984155373757	132
0	900	166.542369285442	131
0	906	167.854912955298	132
0	907	167.854912955298	133
0	908	168.042369285442	132
0	914	169.505080521505	133
0	915	169.505080521505	134
0	916	169.542369285442	133
0	922	170.180217916584	134
0	923	170.180217916584	135
0	924	171.042369285442	134
0	927	172.542369285442	133
0	933	173.741268219021	134
0	934	173.741268219021	135
0	938	173.951652842057	136
0	939	173.951652842057	137
0	940	174.042369285442	136
0	946	174.315432790012	137
0	947	174.315432790012	138
0	948	175.542369285442	137
0	951	177.042369285442	136
0	957	177.472263194612	137
0	958	177.472263194612	138
0	959	178.542369285442	137
0	965	179.321209795258	138
0	966	179.321209795258	139
0	970	179.507267774412	140
0	971	179.507267774412	141
0	972	180.042369285442	140
0	978	180.584697368959	141
0	979	180.584697368959	142
0	980	181.542369285442	141
0	983	183.042369285442	140
0	989	183.315099747525	141
0	990	183.315099747525	142
0	991	184.542369285442	141
0	997	185.095792470009	142
0	998	185.095792470009	143
0	999	186.042369285442	142
0	1002	187.542369285442	141
0	1005	189.042369285442	140
0	1011	189.384954639059	141
0	1012	189.384954639059	142
0	1016	189.794621091033	143
0	1017	189.794621091033	144
0	1021	189.951588542239	145
0	1022	189.951588542239	146
0	1026	190.123822113338	147
0	1027	190.123822113338	148
0	1028	190.542369285442	147
0	1031	192.042369285442	146
0	1037	192.384451059476	147
0	1038	192.384451059476	148
0	1042	192.99892341541	149
0	1043	192.99892341541	150
0	1047	193.20944864518	151
0	1048	193.20944864518	152
0	1049	193.542369285442	151
0	1055	194.01348647133	152
0	1056	194.01348647133	153
0	1057	195.042369285442	152
0	1063	196.037918474182	153
0	1064	196.037918474182	154
0	1065	196.542369285442	153
0	1068	198.042369285442	152
0	1074	199.039205162145	153
0	1075	199.039205162145	154
0	1076	199.542369285442	153
0	1079	201.042369285442	152
0	1085	201.109231419724	153
0	1086	201.109231419724	154
0	1090	202.501497674136	155
0	1091	202.501497674136	156
0	1092	202.542369285442	155
0	1095	204.042369285442	154
0	1101	204.741545539978	155
0	1102	204.741545539978	156
0	1103	205.542369285442	155
0	1109	205.958332083687	156
0	1110	205.958332083687	157
0	1111	207.042369285442	156
0	1117	208.328641442768	157
0	1118	208.328641442768	158
0	1119	208.542369285442	157
0	1125	208.758626727483	158
0	1126	208.758626727483	159
0	1127	210.042369285442	158
0	1130	211.542369285442	157
0	1136	211.674893727148	158
0	1137	211.674893727148	159
0	1141	212.628553026845	160
0	1142	212.628553026845	161
0	1143	213.042369285442	160
0	1149	213.776787660446	161
0	1150	213.776787660446	162
0	1151	214.542369285442	161
0	1154	216.042369285442	160
0	1160	217.022538311625	161
0	1161	217.022538311625	162
0	1162	217.542369285442	161
0	1168	217.677648656995	162
0	1169	217.677648656995	163
0	1173	217.776297326118	164
0	1174	217.776297326118	165
0	1175	219.042369285442	164
0	1181	220.481144038578	165
0	1182	220.481144038578	166
0	1183	220.542369285442	165
0	1186	222.042369285442	164
0	1192	222.272906144272	165
0	1193	222.272906144272	166
0	1197	223.446982832616	167
0	1198	223.446982832616	168
0	1199	223.542369285442	167
0	1205	224.955686914551	168
0	1206	224.955686914551	169
0	1207	225.042369285442	168
0	1213	226.169217817902	169
0	1214	226.169217817902	170
0	1215	226.542369285442	169
0	1218	228.042369285442	168
0	1224	228.606913543942	169
0	1225	228.606913543942	170
0	1226	229.542369285442	169
0	1229	231.042369285442	168
0	1235	231.139402953849	169
0	1236	231.139402953849	170
0	1240	232.338961969992	171
0	1241	232.338961969992	172
0	1242	232.542369285442	171
0	1248	233.194973414607	172
0	1249	233.194973414607	173
0	1250	234.042369285442	172
0	1256	234.176888943855	173
0	1257	234.176888943855	174
0	1261	234.287862147525	175
0	1262	234.287862147525	176
0	1266	234.291494797423	177
0	1267	234.291494797423	178
0	1271	235.334630650376	179
0	1272	235.334630650376	180
0	1273	235.542369285442	179
0	1276	237.042369285442	178
0	1282	237.311096998957	179
0	1283	237.311096998957	180
0	1287	237.877821824206	181
0	1288	237.877821824206	182
0	1289	238.542369285442	181
0	1295	239.730444706185	182
0	1296	239.730444706185	183
0	1297	240.042369285442	182
0	1300	241.542369285442	181
0	1306	242.001154299687	182
0	1307	242.001154299687	183
0	1308	243.042369285442	182
0	1311	244.542369285442	181
0	1314	246.042369285442	180
0	1320	247.269453510364	181
0	1321	247.269453510364	182
0	1322	247.542369285442	181
0	1328	248.769929660557	182
0	1329	248.769929660557	183
0	1330	249.042369285442	182
0	1336	250.311113698369	183
0	1337	250.311113698369	184
0	1338	250.542369285442	183
0	1344	251.176652524781	184
0	1345	251.176652524781	185
0	1346	252.042369285442	184
0	1352	252.155375255021	185
0	1353	252.155375255021	186
0	1354	253.542369285442	185
0	1360	253.605240139253	186
0	1361	253.605240139253	187
0	1365	254.300789752767	188
0	1366	254.300789752767	189
0	1367	255.042369285442	188
0	1373	255.218891159422	189
0	1374	255.218891159422	190
0	1378	255.781108821512	191
0	1379	255.781108821512	192
0	1380	256.542369285442	191
0	1386	257.577177246985	192
0	1387	257.577177246985	193
0	1391	257.611456602092	194
0	1392	257.611456602092	195
0	1393	258.042369285442	194
0	1399	259.29030900014	195
0	1400	259.29030900014	196
0	1401	259.542369285442	195
0	1404	261.042369285442	194
0	1410	261.883329299205	195
0	1411	261.883329299205	196
0	1412	262.542369285442	195
0	1418	263.5460309279	196
0	1419	263.5460309279	197
0	1420	264.042369285442	196
0	1426	265.447154869614	197
0	1427	265.447154869614	198
0	1428	265.542369285442	197
0	1434	266.835537303361	198
0	1435	266.835537303361	199
0	1436	267.042369285442	198
0	1442	267.204169664892	199
0	1443	267.204169664892	200
0	1444	268.542369285442	199
0	1450	268.875178162419	200
0	1451	268.875178162419	201
0	1455	269.220784989793	202
0	1456	269.220784989793	203
0	1457	270.042369285442	202
0	1463	271.016883447668	203
0	1464	271.016883447668	204
0	1465	271.542369285442	203
0	1471	272.157169445968	204
0	1472	272.157169445968	205
0	1476	272.172861785363	206
0	1477	272.172861785363	207
0	1481	272.82378077344	208
0	1482	272.82378077344	209
0	1483	273.042369285442	208
0	1489	273.384240867728	209
0	1490	273.384240867728	210
0	1491	274.542369285442	209
0	1497	275.500111404946	210
0	1498	275.500111404946	211
0	1499	276.042369285442	210
0	1502	277.542369285442	209
0	1508	278.231055962256	210
0	1509	278.231055962256	211
0	1513	278.893811157161	212
0	1514	278.893811157161	213
0	1515	279.042369285442	212
0	1521	280.01420588618	213
0	1522	280.01420588618	214
0	1523	280.542369285442	213
0	1526	282.042369285442	212
0	1532	282.649256837596	213
0	1533	282.649256837596	214
0	1534	283.542369285442	213
0	1540	284.463004186619	214
0	1541	284.463004186619	215
0	1542	285.042369285442	214
0	1548	286.280674376242	215
0	1549	286.280674376242	216
0	1550	286.542369285442	215
0	1556	286.740740922382	216
0	1557	286.740740922382	217
0	1558	288.042369285442	216
0	1564	289.420575992411	217
0	1565	289.420575992411	218
0	1566	289.542369285442	217
0	1569	291.042369285442	216
0	1575	292.030978410493	217
0	1576	292.030978410493	218
0	1580	292.184282538379	219
0	1581	292.184282538379	220
0	1582	292.542369285442	219
0	1585	294.042369285442	218
0	1591	295.215235420854	219
0	1592	295.215235420854	220
0	1593	295.542369285442	219
0	1596	297.042369285442	218
0	1602	298.523788382671	219
0	1603	298.523788382671	220
0	1604	298.542369285442	219
0	1607	300.042369285442	218
0	1613	300.184262903821	219
0	1614	300.184262903821	220
0	1615	301.542369285442	219
0	1621	302.381279674046	220
0	1622	302.381279674046	221
0	1623	303.042369285442	220
0	1626	304.542369285442	219
0	1632	304.840318238124	220
0	1633	304.840318238124	221
0	1637	305.702609551043	222
0	1638	305.702609551043	223
0	1639	306.042369285442	222
0	1642	307.542369285442	221
0	1648	307.564962615142	222
0	1649	307.564962615142	223
0	1650	309.042369285442	222
0	1656	309.81189341946	223
0	1657	309.81189341946	224
0	1661	309.827321881572	225
0	1662	309.827321881572	226
0	1663	310.542369285442	225
0	1666	312.042369285442	224
0	1672	313.04795883256	225
0	1673	313.04795883256	226
0	1674	313.542369285442	225
0	1677	315.042369285442	224
0	1680	316.542369285442	223
0	1686	317.211451684245	224
0	1687	317.211451684245	225
0	1688	318.042369285442	224
0	1694	318.667285862468	225
0	1695	318.667285862468	226
0	1699	319.435016750544	227
0	1700	319.435016750544	228
0	1701	319.542369285442	227
0	1707	319.774481822251	228
0	1708	319.774481822251	229
0	1709	321.042369285442	228
0	1715	321.314753402181	229
0	1716	321.314753402181	230
0	1720	321.834337373684	231
0	1721	321.834337373684	232
0	1722	322.542369285442	231
0	1728	323.564821356609	232
0	1729	323.564821356609	233
0	1730	324.042369285442	232
0	1736	324.891467901172	233
0	1737	324.891467901172	234
0	1738	325.542369285442	233
0	1741	327.042369285442	232
0	1747	327.780836294368	233
0	1748	327.780836294368	234
0	1752	328.392731394833	235
0	1753	328.392731394833	236
0	1754	328.542369285442	235
0	1757	330.042369285442	234
0	1763	330.591313625402	235
0	1764	330.591313625402	236
0	1765	331.542369285442	235
0	1771	332.393277038258	236
0	1772	332.393277038258	237
0	1773	333.042369285442	236
0	1776	334.542369285442	235
0	1782	334.856813561727	236
0	1783	334.856813561727	237
0	1784	336.042369285442	236
0	1790	337.464216511413	237
0	1791	337.464216511413	238
0	1792	337.542369285442	237
0	1795	339.042369285442	236
0	1801	339.785969840879	237
0	1802	339.785969840879	238
0	1803	340.542369285442	237
0	1809	341.811340151038	238
0	1810	341.811340151038	239
0	1811	342.042369285442	238
0	1814	343.542369285442	237
0	1820	343.821699393453	238
0	1821	343.821699393453	239
0	1825	343.836959394243	240
0	1826	343.836959394243	241
0	1830	344.389976406869	242
0	1831	344.389976406869	243
0	1832	345.042369285442	242
0	1838	345.59682277863	243
0	1839	345.59682277863	244
0	1840	346.542369285442	243
0	1846	347.583670994337	244
0	1847	347.583670994337	245
0	1848	348.042369285442	244
0	1854	348.412676435458	245
0	1855	348.412676435458	246
0	1856	349.542369285442	245
0	1862	350.391962317444	246
0	1863	350.391962317444	247
0	1867	350.895091359341	248
0	1868	350.895091359341	249
0	1872	350.983286316601	250
0	1873	350.983286316601	251
0	1874	351.042369285442	250
0	1877	352.542369285442	249
0	1883	352.861669960447	250
0	1884	352.861669960447	251
0	1888	353.47259302844	252
0	1889	353.47259302844	253
0	1890	354.042369285442	252
0	1893	355.542369285442	251
0	1896	357.042369285442	250
0	1902	357.423410797016	251
0	1903	357.423410797016	252
0	1904	358.542369285442	251
0	1910	359.599705026637	252
0	1911	359.599705026637	253
0	1912	360.042369285442	252
0	1918	360.881098345271	253
0	1919	360.881098345271	254
0	1923	361.316528951587	255
0	1924	361.316528951587	256
0	1925	361.542369285442	255
0	1931	363.029966387156	256
0	1932	363.029966387156	257
0	1933	363.042369285442	256
0	1939	364.528021374203	257
0	1940	364.528021374203	258
0	1941	364.542369285442	257
0	1947	365.005675188025	258
0	1948	365.005675188025	259
0	1952	365.04873936703	260
0	1953	365.04873936703	261
0	1954	366.042369285442	260
0	1960	366.860599678277	261
0	1961	366.860599678277	262
0	1962	367.542369285442	261
0	1968	367.588931675016	262
0	1969	367.588931675016	263
0	1970	369.042369285442	262
0	1976	369.323635898603	263
0	1977	369.323635898603	264
0	1978	370.542369285442	263
0	1984	371.39290741002	264
0	1985	371.39290741002	265
0	1989	371.660535010071	266
0	1990	371.660535010071	267
0	1991	372.042369285442	266
0	1997	372.326575737047	267
0	1998	372.326575737047	268
0	1999	373.542369285442	267
0	2005	374.685229882086	268
0	2006	374.685229882086	269
0	2007	375.042369285442	268
0	2013	376.453765659673	269
0	2014	376.453765659673	270
0	2015	376.542369285442	269
0	2021	378.018780969515	270
0	2022	378.018780969515	271
0	2023	378.042369285442	270
0	2029	379.060275763385	271
0	2030	379.060275763385	272
0	2031	379.542369285442	271
0	2037	380.694478648103	272
0	2038	380.694478648103	273
0	2042	381.01168870687	274
0	2043	381.01168870687	275
0	2044	381.042369285442	274
0	2050	382.501703069319	275
0	2051	382.501703069319	276
0	2052	382.542369285442	275
0	2058	382.713356188434	276
0	2059	382.713356188434	277
0	2063	383.00482871663	278
0	2064	383.00482871663	279
0	2068	383.148176452641	280
0	2069	383.148176452641	281
0	2070	384.042369285442	280
0	2076	384.868433605613	281
0	2077	384.868433605613	282
0	2081	385.120570733431	283
0	2082	385.120570733431	284
0	2083	385.542369285442	283
0	2089	385.55446674761	284
0	2090	385.55446674761	285
0	2091	387.042369285442	284
0	2097	388.349934785111	285
0	2098	388.349934785111	286
0	2099	388.542369285442	285
0	2105	388.880568682028	286
0	2106	388.880568682028	287
0	2107	390.042369285442	286
0	2113	390.310656081891	287
0	2114	390.310656081891	288
0	2115	391.542369285442	287
0	2121	391.878779213814	288
0	2122	391.878779213814	289
0	2126	392.564071622996	290
0	2127	392.564071622996	291
0	2128	393.042369285442	290
0	2134	393.408684342182	291
0	2135	393.408684342182	292
0	2136	394.542369285442	291
0	2139	396.042369285442	290
0	2145	396.100403151741	291
0	2146	396.100403151741	292
0	2147	397.542369285442	291
0	2153	397.565613620663	292
0	2154	397.565613620663	293
0	2158	398.399927396936	294
0	2159	398.399927396936	295
0	2163	398.452154524965	296
0	2164	398.452154524965	297
0	2168	398.693654803136	298
0	2169	398.693654803136	299
0	2170	399.042369285442	298
0	2176	399.234024225993	299
0	2177	399.234024225993	300
0	2178	400.542369285442	299
0	2181	402.042369285442	298
0	2187	402.221469602724	299
0	2188	402.221469602724	300
0	2189	403.542369285442	299
0	2195	404.660691525866	300
0	2196	404.660691525866	301
0	2200	404.731382834083	302
0	2201	404.731382834083	303
0	2202	405.042369285442	302
0	2208	405.404129058118	303
0	2209	405.404129058118	304
0	2213	406.064594362261	305
0	2214	406.064594362261	306
0	2218	406.424809961274	307
0	2219	406.424809961274	308
0	2220	406.542369285442	307
0	2226	407.210050394451	308
0	2227	407.210050394451	309
0	2231	407.391280117922	310
0	2232	407.391280117922	311
0	2236	407.940490150398	312
0	2237	407.940490150398	313
0	2238	408.042369285442	312
0	2244	408.762218774909	313
0	2245	408.762218774909	314
0	2246	409.542369285442	313
0	2252	410.754370680431	314
0	2253	410.754370680431	315
0	2257	410.869349823382	316
0	2258	410.869349823382	317
0	2259	411.042369285442	316
0	2265	412.075064387899	317
0	2266	412.075064387899	318
0	2267	412.542369285442	317
0	2273	413.936645137579	318
0	2274	413.936645137579	319
0	2275	414.042369285442	318
0	2281	414.142765722167	319
0	2282	414.142765722167	320
0	2283	415.542369285442	319
0	2289	415.804662899934	320
0	2290	415.804662899934	321
0	2291	417.042369285442	320
0	2297	418.191334132768	321
0	2298	418.191334132768	322
0	2299	418.542369285442	321
0	2305	420.008674208606	322
0	2306	420.008674208606	323
0	2307	420.042369285442	322
0	2313	421.418025915444	323
0	2314	421.418025915444	324
0	2315	421.542369285442	323
0	2318	423.042369285442	322
0	2324	424.102261462278	323
0	2325	424.102261462278	324
0	2326	424.542369285442	323
0	2332	425.454020260533	324
0	2333	425.454020260533	325
0	2334	426.042369285442	324
0	2340	426.390185718559	325
0	2341	426.390185718559	326
0	2342	427.542369285442	325
0	2348	428.234165691469	326
0	2349	428.234165691469	327
0	2350	429.042369285442	326
0	2356	429.064644442095	327
0	2357	429.064644442095	328
0	2358	430.542369285442	327
0	2364	431.772390135646	328
0	2365	431.772390135646	329
0	2366	432.042369285442	328
0	2372	432.928751275118	329
0	2373	432.928751275118	330
0	2374	433.542369285442	329
0	2380	434.087198584736	330
0	2381	434.087198584736	331
0	2385	434.555369334068	332
0	2386	434.555369334068	333
0	2387	435.042369285442	332
0	2393	435.388956175781	333
0	2394	435.388956175781	334
0	2395	436.542369285442	333
0	2401	436.845460256945	334
0	2402	436.845460256945	335
0	2406	437.619557162439	336
0	2407	437.619557162439	337
0	2408	438.042369285442	336
0	2414	438.393885456156	337
0	2415	438.393885456156	338
0	2416	439.542369285442	337
0	2422	439.545723701426	338
0	2423	439.545723701426	339
0	2427	440.922820332376	340
0	2428	440.922820332376	341
0	2429	441.042369285442	340
0	2435	442.121159986256	341
0	2436	442.121159986256	342
0	2437	442.542369285442	341
0	2440	444.042369285442	340
0	2446	444.628161491113	341
0	2447	444.628161491113	342
0	2448	445.542369285442	341
0	2451	447.042369285442	340
0	2457	448.171283134072	341
0	2458	448.171283134072	342
0	2459	448.542369285442	341
0	2465	448.676305288925	342
0	2466	448.676305288925	343
0	2467	450.042369285442	342
0	2470	451.542369285442	341
0	2476	451.653540315702	342
0	2477	451.653540315702	343
0	2478	453.042369285442	342
0	2484	453.832063148144	343
0	2485	453.832063148144	344
0	2489	454.118250460604	345
0	2490	454.118250460604	346
0	2491	454.542369285442	345
0	2497	455.240649513439	346
0	2498	455.240649513439	347
0	2502	455.605842306815	348
0	2503	455.605842306815	349
0	2504	456.042369285442	348
0	2510	457.08211602318	349
0	2511	457.08211602318	350
0	2512	457.542369285442	349
0	2518	458.384454590525	350
0	2519	458.384454590525	351
0	2520	459.042369285442	350
0	2523	460.542369285442	349
0	2529	460.812919080595	350
0	2530	460.812919080595	351
0	2534	461.343997421486	352
0	2535	461.343997421486	353
0	2536	462.042369285442	352
0	2542	462.171961819547	353
0	2543	462.171961819547	354
0	2547	462.768161390459	355
0	2548	462.768161390459	356
0	2552	462.846081141356	357
0	2553	462.846081141356	358
0	2554	463.542369285442	357
0	2560	464.468043901249	358
0	2561	464.468043901249	359
0	2565	465.026554055452	360
0	2566	465.026554055452	361
0	2567	465.042369285442	360
0	2573	466.10855689098	361
0	2574	466.10855689098	362
0	2578	466.130941086728	363
0	2579	466.130941086728	364
0	2580	466.542369285442	363
0	2583	468.042369285442	362
0	2589	468.625250477592	363
0	2590	468.625250477592	364
0	2594	468.643569059444	365
0	2595	468.643569059444	366
0	2596	469.542369285442	365
0	2602	470.707933270295	366
0	2603	470.707933270295	367
0	2604	471.042369285442	366
0	2610	471.199704815449	367
0	2611	471.199704815449	368
0	2612	472.542369285442	367
0	2618	473.983856446255	368
0	2619	473.983856446255	369
0	2620	474.042369285442	368
0	2623	475.542369285442	367
0	2629	476.512427400783	368
0	2630	476.512427400783	369
0	2631	477.042369285442	368
0	2634	478.542369285442	367
0	2640	479.448405392077	368
0	2641	479.448405392077	369
0	2645	479.884579043532	370
0	2646	479.884579043532	371
0	2647	480.042369285442	370
0	2650	481.542369285442	369
0	2656	481.795626160621	370
0	2657	481.795626160621	371
0	2661	482.474006958164	372
0	2662	482.474006958164	373
0	2663	483.042369285442	372
0	2669	484.189973531872	373
0	2670	484.189973531872	374
0	2671	484.542369285442	373
0	2674	486.042369285442	372
0	2680	486.604411369673	373
0	2681	486.604411369673	374
0	2685	486.929683702468	375
0	2686	486.929683702468	376
0	2690	487.10941062188	377
0	2691	487.10941062188	378
0	2692	487.542369285442	377
0	2695	489.042369285442	376
0	2701	489.175001959903	377
0	2702	489.175001959903	378
0	2703	490.542369285442	377
0	2709	491.404191971933	378
0	2710	491.404191971933	379
0	2714	491.953517194767	380
0	2715	491.953517194767	381
0	2716	492.042369285442	380
0	2722	492.054865579375	381
0	2723	492.054865579375	382
0	2724	493.542369285442	381
0	2730	493.672651760811	382
0	2731	493.672651760811	383
0	2732	495.042369285442	382
0	2738	495.524248694972	383
0	2739	495.524248694972	384
0	2743	496.511217303552	385
0	2744	496.511217303552	386
0	2745	496.542369285442	385
0	2751	497.280690416854	386
0	2752	497.280690416854	387
0	2753	498.042369285442	386
0	2759	498.80323738288	387
0	2760	498.80323738288	388
0	2761	499.542369285442	387
0	2767	499.88130377221	388
0	2768	499.88130377221	389
0	2769	501.042369285442	388
0	2772	502.542369285442	387
0	2778	503.194015085464	388
0	2779	503.194015085464	389
0	2780	504.042369285442	388
0	2786	505.023001130078	389
0	2787	505.023001130078	390
0	2788	505.542369285442	389
0	2791	507.042369285442	388
0	2797	507.969737554667	389
0	2798	507.969737554667	390
0	2799	508.542369285442	389
0	2805	509.750271503138	390
0	2806	509.750271503138	391
0	2807	510.042369285442	390
0	2810	511.542369285442	389
0	2813	513.042369285442	388
0	2819	513.065778787211	389
0	2820	513.065778787211	390