version 3
run k_MM1_rand-9-20221127-16:03:21-5740
attr configname k_MM1_rand
attr datetime 20221127-16:03:21
attr datetimef 20221127-160321
attr experiment k_MM1_rand
attr inifile omnetpp.ini
attr iterationvars "$time=1.5, $num=1, $0=45732, $1=35463, $2=67563"
attr iterationvarsd time=1.5/num=1/45732/35463/67563
attr iterationvarsf time=1.5,num=1,45732,35463,67563-
attr measurement "$time=1.5, $num=1, $0=45732, $1=35463, $2=67563"
attr network randkMM1
attr processid 5740
attr repetition 1
attr replication #1
attr resultdir results
attr runnumber 9
attr seedset 9
itervar num 1
itervar time 1.5
config description "MM1 module k-times random"
config network randkMM1
config **.source.interArrivalTime "truncnormal(0.5s, 1.5s)"
config **.serviceTime 1.5s
config **.c 1
config **.capacity 10000
config record-eventlog false
config **.scalar-recording true
config **.vector-recording true
config repeat 4
config seed-1-mt 45732
config seed-2-mt 35463
config seed-3-mt 67563
config output-vector-file k_MM1_rand-1-1.5-results/1.vec
config output-scalar-file k_MM1_rand-1-1.5-results/1.sca

vector 0 randkMM1.mm1[0] queueLength:vector ETV
attr interpolationmode none
attr recordingmode vector
attr title "queue length"
vector 1 randkMM1.mm1[0] util:vector ETV
attr interpolationmode none
attr recordingmode vector
attr title resources
0	5	10	1
0	9	10.35729264959	2
0	10	10.35729264959	3
0	11	11.5	2
0	17	12.610679575044	3
0	18	12.610679575044	4
0	22	12.785677120639	5
0	23	12.785677120639	6
0	24	13	5
0	30	14.113289027654	6
0	31	14.113289027654	7
0	32	14.5	6
0	38	15.368517760585	7
0	39	15.368517760585	8
0	40	16	7
0	46	16.88272816212	8
0	47	16.88272816212	9
0	48	17.5	8
0	54	18.112366785643	9
0	55	18.112366785643	10
0	59	18.113551111348	11
0	60	18.113551111348	12
0	64	18.249990289804	13
0	65	18.249990289804	14
0	69	18.395460991024	15
0	70	18.395460991024	16
0	71	19	15
0	77	19.308620738617	16
0	78	19.308620738617	17
0	79	20.5	16
0	85	21.098375196949	17
0	86	21.098375196949	18
0	87	22	17
0	90	23.5	16
0	96	23.702709538725	17
0	97	23.702709538725	18
0	98	25	17
0	104	26.321470877963	18
0	105	26.321470877963	19
0	106	26.5	18
0	109	28	17
0	115	29.01033302456	18
0	116	29.01033302456	19
0	117	29.5	18
0	123	29.668570062069	19
0	124	29.668570062069	20
0	125	31	19
0	131	31.536181950832	20
0	132	31.536181950832	21
0	133	32.5	20
0	136	34	19
0	142	35.437416248626	20
0	143	35.437416248626	21
0	144	35.5	20
0	150	36.740781344138	21
0	151	36.740781344138	22
0	152	37	21
0	155	38.5	20
0	161	38.898897094564	21
0	162	38.898897094564	22
0	166	39.946137349139	23
0	167	39.946137349139	24
0	168	40	23
0	171	41.5	22
0	174	43	21
0	180	43.10232505557	22
0	181	43.10232505557	23
0	182	44.5	22
0	185	46	21
0	188	47.5	20
0	194	47.561275917732	21
0	195	47.561275917732	22
0	199	47.596351519822	23
0	200	47.596351519822	24
0	204	48.934605682365	25
0	205	48.934605682365	26
0	206	49	25
0	209	50.5	24
0	212	52	23
0	218	52.559050273681	24
0	219	52.559050273681	25
0	220	53.5	24
0	226	54.294665169724	25
0	227	54.294665169724	26
0	228	55	25
0	234	55.691035470291	26
0	235	55.691035470291	27
0	236	56.5	26
0	242	57.279919883266	27
0	243	57.279919883266	28
0	244	58	27
0	250	59.071372454554	28
0	251	59.071372454554	29
0	252	59.5	28
0	255	61	27
0	258	62.5	26
0	264	62.576656851564	27
0	265	62.576656851564	28
0	269	63.950246330357	29
0	270	63.950246330357	30
0	271	64	29
0	277	64.874414498072	30
0	278	64.874414498072	31
0	279	65.5	30
0	282	67	29
0	288	67.46142626864	30
0	289	67.46142626864	31
0	290	68.5	30
0	296	68.990311003721	31
0	297	68.990311003721	32
0	301	69.180295191591	33
0	302	69.180295191591	34
0	306	69.2734205096	35
0	307	69.2734205096	36
0	311	69.579395770267	37
0	312	69.579395770267	38
0	313	70	37
0	319	70.139051462279	38
0	320	70.139051462279	39
0	321	71.5	38
0	327	71.813671258998	39
0	328	71.813671258998	40
0	332	72.932097562344	41
0	333	72.932097562344	42
0	334	73	41
0	340	74.173706873297	42
0	341	74.173706873297	43
0	342	74.5	42
0	348	75.856709636409	43
0	349	75.856709636409	44
0	350	76	43
0	353	77.5	42
0	359	78.988610892167	43
0	360	78.988610892167	44
0	361	79	43
0	367	79.704279781557	44
0	368	79.704279781557	45
0	372	80.495151147549	46
0	373	80.495151147549	47
0	374	80.5	46
0	377	82	45
0	383	82.189256556442	46
0	384	82.189256556442	47
0	388	83.023857865368	48
0	389	83.023857865368	49
0	390	83.5	48
0	396	84.897697011893	49
0	397	84.897697011893	50
0	398	85	49
0	404	85.725557686457	50
0	405	85.725557686457	51
0	409	86.000024003012	52
0	410	86.000024003012	53
0	411	86.5	52
0	417	87.520374428624	53
0	418	87.520374428624	54
0	419	88	53
0	425	88.467541760014	54
0	426	88.467541760014	55
0	427	89.5	54
0	433	89.993177111392	55
0	434	89.993177111392	56
0	435	91	55
0	441	92.242590948192	56
0	442	92.242590948192	57
0	443	92.5	56
0	446	94	55
0	452	94.007694266035	56
0	453	94.007694266035	57
0	457	95.276918470976	58
0	458	95.276918470976	59
0	459	95.5	58
0	462	97	57
0	465	98.5	56
0	471	99.534136113016	57
0	472	99.534136113016	58
0	473	100	57
0	479	100.831916774012	58
0	480	100.831916774012	59
0	484	100.899354613616	60
0	485	100.899354613616	61
0	486	101.5	60
0	492	101.62456501938	61
0	493	101.62456501938	62
0	497	102.845380124449	63
0	498	102.845380124449	64
0	499	103	63
0	502	104.5	62
0	508	105.15597931774	63
0	509	105.15597931774	64
0	513	105.412699727664	65
0	514	105.412699727664	66
0	518	105.696436351985	67
0	519	105.696436351985	68
0	520	106	67
0	526	107.227218705449	68
0	527	107.227218705449	69
0	528	107.5	68
0	534	108.538764579386	69
0	535	108.538764579386	70
0	536	109	69
0	542	109.448794159593	70
0	543	109.448794159593	71
0	544	110.5	70
0	550	110.862227182288	71
0	551	110.862227182288	72
0	555	110.979891781151	73
0	556	110.979891781151	74
0	557	112	73
0	560	113.5	72
0	566	114.004169332162	73
0	567	114.004169332162	74
0	571	114.944513238663	75
0	572	114.944513238663	76
0	573	115	75
0	579	116.086606762381	76
0	580	116.086606762381	77
0	581	116.5	76
0	584	118	75
0	590	118.397957630346	76
0	591	118.397957630346	77
0	592	119.5	76
0	598	120.69527506022	77
0	599	120.69527506022	78
0	600	121	77
0	606	121.845912078896	78
0	607	121.845912078896	79
0	608	122.5	78
0	614	123.011199868669	79
0	615	123.011199868669	80
0	619	123.176282930241	81
0	620	123.176282930241	82
0	624	123.752351187825	83
0	625	123.752351187825	84
0	629	123.959743475465	85
0	630	123.959743475465	86
0	631	124	85
0	637	124.928421421356	86
0	638	124.928421421356	87
0	639	125.5	86
0	645	126.970799017052	87
0	646	126.970799017052	88
0	647	127	87
0	650	128.5	86
0	656	129.227018281357	87
0	657	129.227018281357	88
0	658	130	87
0	661	131.5	86
0	667	132.124738775669	87
0	668	132.124738775669	88
0	669	133	87
0	675	134.438714825857	88
0	676	134.438714825857	89
0	677	134.5	88
0	680	136	87
0	686	136.482013118383	88
0	687	136.482013118383	89
0	688	137.5	88
0	694	137.500879796084	89
0	695	137.500879796084	90
0	699	138.494161237546	91
0	700	138.494161237546	92
0	701	139	91
0	707	139.116382837193	92
0	708	139.116382837193	93
0	712	140.197867111559	94
0	713	140.197867111559	95
0	714	140.5	94
0	720	140.653176927944	95
0	721	140.653176927944	96
0	722	142	95
0	725	143.5	94
0	731	143.656762486911	95
0	732	143.656762486911	96
0	736	144.744491403008	97
0	737	144.744491403008	98
0	738	145	97
0	741	146.5	96
0	744	148	95
0	750	148.161446811891	96
0	751	148.161446811891	97
0	752	149.5	96
0	758	149.891748489269	97
0	759	149.891748489269	98
0	763	150.019269373863	99
0	764	150.019269373863	100
0	765	151	99
0	771	151.704319318563	100
0	772	151.704319318563	101
0	776	152.027527263332	102
0	777	152.027527263332	103
0	778	152.5	102
0	781	154	101
0	787	155.396338105267	102
0	788	155.396338105267	103
0	792	155.402633157771	104
0	793	155.402633157771	105
0	794	155.5	104
0	797	157	103
0	803	158.106949061814	104
0	804	158.106949061814	105
0	805	158.5	104
0	808	160	103
0	814	161.468364836214	104
0	815	161.468364836214	105
0	816	161.5	104
0	822	161.729309425851	105
0	823	161.729309425851	106
0	824	163	105
0	830	163.476150491239	106
0	831	163.476150491239	107
0	832	164.5	106
0	835	166	105
0	841	166.759678244512	106
0	842	166.759678244512	107
0	846	166.821837553032	108
0	847	166.821837553032	109
0	848	167.5	108
0	854	168.433564082256	109
0	855	168.433564082256	110
0	856	169	109
0	862	169.104605592231	110
0	863	169.104605592231	111
0	867	170.121996066199	112
0	868	170.121996066199	113
0	869	170.5	112
0	875	170.551657924608	113
0	876	170.551657924608	114
0	880	171.867475871827	115
0	881	171.867475871827	116
0	882	172	115
0	885	173.5	114
0	891	174.342210967995	115
0	892	174.342210967995	116
0	893	175	115
0	896	176.5	114
0	902	177.063727760629	115
0	903	177.063727760629	116
0	904	178	115
0	907	179.5	114
0	913	180.793612751265	115
0	914	180.793612751265	116
0	915	181	115
0	921	181.622209480212	116
0	922	181.622209480212	117
0	923	182.5	116
0	929	182.611920942099	117
0	930	182.611920942099	118
0	934	183.678098519123	119
0	935	183.678098519123	120
0	936	184	119
0	942	185.41722300185	120
0	943	185.41722300185	121
0	944	185.5	120
0	950	185.875234382043	121
0	951	185.875234382043	122
0	952	187	121
0	958	188.435256057288	122
0	959	188.435256057288	123
0	960	188.5	122
0	966	188.666964463933	123
0	967	188.666964463933	124
0	968	190	123
0	974	190.659259481173	124
0	975	190.659259481173	125
0	976	191.5	124
0	982	191.887330618723	125
0	983	191.887330618723	126
0	984	193	125
0	990	193.333330947314	126
0	991	193.333330947314	127
0	992	194.5	126
0	998	195.513994650875	127
0	999	195.513994650875	128
0	1000	196	127
0	1006	196.474124669263	128
0	1007	196.474124669263	129
0	1011	197.396008419317	130
0	1012	197.396008419317	131
0	1013	197.5	130
0	1019	197.612793138905	131
0	1020	197.612793138905	132
0	1024	198.618340658687	133
0	1025	198.618340658687	134
0	1026	199	133
0	1029	200.5	132
0	1032	202	131
0	1038	202.245855365009	132
0	1039	202.245855365009	133
0	1040	203.5	132
0	1046	204.324744555714	133
0	1047	204.324744555714	134
0	1048	205	133
0	1054	206.337969749748	134
0	1055	206.337969749748	135
0	1056	206.5	134
0	1059	208	133
0	1062	209.5	132
0	1068	209.542638362153	133
0	1069	209.542638362153	134
0	1070	211	133
0	1076	212.33162356105	134
0	1077	212.33162356105	135
0	1078	212.5	134
0	1084	213.230610952603	135
0	1085	213.230610952603	136
0	1086	214	135
0	1092	214.365458072132	136
0	1093	214.365458072132	137
0	1094	215.5	136
0	1097	217	135
0	1103	218.143291016868	136
0	1104	218.143291016868	137
0	1105	218.5	136
0	1111	218.503716231132	137
0	1112	218.503716231132	138
0	1116	219.43463408746	139
0	1117	219.43463408746	140
0	1118	220	139
0	1124	220.900562766394	140
0	1125	220.900562766394	141
0	1126	221.5	140
0	1129	223	139
0	1132	224.5	138
0	1138	224.612485401119	139
0	1139	224.612485401119	140
0	1140	226	139
0	1146	226.196715057146	140
0	1147	226.196715057146	141
0	1151	226.60576958167	142
0	1152	226.60576958167	143
0	1153	227.5	142
0	1159	228.75587411616	143
0	1160	228.75587411616	144
0	1161	229	143
0	1167	230.096743241943	144
0	1168	230.096743241943	145
0	1169	230.5	144
0	1175	230.746099942169	145
0	1176	230.746099942169	146
0	1180	231.56154854752	147
0	1181	231.56154854752	148
0	1182	232	147
0	1188	232.256033189806	148
0	1189	232.256033189806	149
0	1193	233.4023222845	150
0	1194	233.4023222845	151
0	1195	233.5	150
0	1201	234.265753462947	151
0	1202	234.265753462947	152
0	1206	234.532503634479	153
0	1207	234.532503634479	154
0	1208	235	153
0	1214	235.943094850546	154
0	1215	235.943094850546	155
0	1216	236.5	154
0	1222	237.634524973388	155
0	1223	237.634524973388	156
0	1224	238	155
0	1230	238.754400634346	156
0	1231	238.754400634346	157
0	1235	238.948671981249	158
0	1236	238.948671981249	159
0	1240	239.447772433175	160
0	1241	239.447772433175	161
0	1242	239.5	160
0	1245	241	159
0	1251	242.188868155924	160
0	1252	242.188868155924	161
0	1253	242.5	160
0	1256	244	159
0	1262	244.100876367049	160
0	1263	244.100876367049	161
0	1264	245.5	160
0	1270	246.782799517669	161
0	1271	246.782799517669	162
0	1272	247	161
0	1278	247.936035909184	162
0	1279	247.936035909184	163
0	1280	248.5	162
0	1286	249.388167321083	163
0	1287	249.388167321083	164
0	1288	250	163
0	1294	250.848206227426	164
0	1295	250.848206227426	165
0	1299	251.495453366587	166
0	1300	251.495453366587	167
0	1301	251.5	166
0	1307	252.575801273418	167
0	1308	252.575801273418	168
0	1312	252.905190605818	169
0	1313	252.905190605818	170
0	1314	253	169
0	1320	253.567308303242	170
0	1321	253.567308303242	171
0	1325	253.959303102704	172
0	1326	253.959303102704	173
0	1330	254.414369050518	174
0	1331	254.414369050518	175
0	1332	254.5	174
0	1338	255.489374462239	175
0	1339	255.489374462239	176
0	1340	256	175
0	1343	257.5	174
0	1349	258.713733581851	175
0	1350	258.713733581851	176
0	1351	259	175
0	1357	259.991995114932	176
0	1358	259.991995114932	177
0	1359	260.5	176
0	1365	261.234211586769	177
0	1366	261.234211586769	178
0	1367	262	177
0	1373	262.260992807288	178
0	1374	262.260992807288	179
0	1375	263.5	178
0	1381	264.058400661063	179
0	1382	264.058400661063	180
0	1386	264.895115751846	181
0	1387	264.895115751846	182
0	1388	265	181
0	1394	265.752445458131	182
0	1395	265.752445458131	183
0	1396	266.5	182
0	1399	268	181
0	1405	268.029784067888	182
0	1406	268.029784067888	183
0	1410	268.43377728601	184
0	1411	268.43377728601	185
0	1415	268.862238741992	186
0	1416	268.862238741992	187
0	1417	269.5	186
0	1423	270.472318749214	187
0	1424	270.472318749214	188
0	1425	271	187
0	1431	271.852536467062	188
0	1432	271.852536467062	189
0	1433	272.5	188
0	1439	273.53935742375	189
0	1440	273.53935742375	190
0	1444	273.720415315211	191
0	1445	273.720415315211	192
0	1449	273.861424761373	193
0	1450	273.861424761373	194
0	1451	274	193
0	1454	275.5	192
0	1460	276.248818022091	193
0	1461	276.248818022091	194
0	1462	277	193
0	1468	277.484169590286	194
0	1469	277.484169590286	195
0	1470	278.5	194
0	1476	279.281164237819	195
0	1477	279.281164237819	196
0	1478	280	195
0	1484	280.090538637676	196
0	1485	280.090538637676	197
0	1486	281.5	196
0	1492	282.065414971149	197
0	1493	282.065414971149	198
0	1497	282.566330608079	199
0	1498	282.566330608079	200
0	1499	283	199
0	1505	283.285342596552	200
0	1506	283.285342596552	201
0	1507	284.5	200
0	1513	284.711500713569	201
0	1514	284.711500713569	202
0	1515	286	201
0	1518	287.5	200
0	1524	288.201652918444	201
0	1525	288.201652918444	202
0	1526	289	201
0	1532	289.602208740425	202
0	1533	289.602208740425	203
0	1534	290.5	202
0	1537	292	201
0	1540	293.5	200
0	1546	293.741129195745	201
0	1547	293.741129195745	202
0	1548	295	201
0	1554	296.252408781718	202
0	1555	296.252408781718	203
0	1556	296.5	202
0	1562	297.170604556818	203
0	1563	297.170604556818	204
0	1567	297.640778939212	205
0	1568	297.640778939212	206
0	1569	298	205
0	1575	299.493767918411	206
0	1576	299.493767918411	207
0	1577	299.5	206
0	1583	300.447199155911	207
0	1584	300.447199155911	208
0	1585	301	207
0	1588	302.5	206
0	1594	303.272004600746	207
0	1595	303.272004600746	208
0	1596	304	207
0	1599	305.5	206
0	1605	305.736327084034	207
0	1606	305.736327084034	208
0	1607	307	207
0	1613	308.249273789368	208
0	1614	308.249273789368	209
0	1615	308.5	208
0	1618	310	207
0	1624	310.735299710537	208
0	1625	310.735299710537	209
0	1626	311.5	208
0	1632	312.059968038156	209
0	1633	312.059968038156	210
0	1634	313	209
0	1637	314.5	208
0	1643	315.19432445473	209
0	1644	315.19432445473	210
0	1645	316	209
0	1651	317.314910305066	210
0	1652	317.314910305066	211
0	1653	317.5	210
0	1659	318.139722101762	211
0	1660	318.139722101762	212
0	1664	318.748050460206	213
0	1665	318.748050460206	214
0	1666	319	213
0	1672	320.315724873452	214
0	1673	320.315724873452	215
0	1674	320.5	214
0	1680	320.631739490954	215
0	1681	320.631739490954	216
0	1682	322	215
0	1688	323.427686595149	216
0	1689	323.427686595149	217
0	1690	323.5	216
0	1696	324.351648683433	217
0	1697	324.351648683433	218
0	1698	325	217
0	1701	326.5	216
0	1707	327.070486117296	217
0	1708	327.070486117296	218
0	1709	328	217
0	1715	328.263456155167	218
0	1716	328.263456155167	219
0	1717	329.5	218
0	1723	330.423992370737	219
0	1724	330.423992370737	220
0	1725	331	219
0	1731	332.283316960431	220
0	1732	332.283316960431	221
0	1733	332.5	220
0	1736	334	219
0	1739	335.5	218
0	1745	336.139648717682	219
0	1746	336.139648717682	220
0	1747	337	219
0	1750	338.5	218
0	1756	339.063312534435	219
0	1757	339.063312534435	220
0	1758	340	219
0	1764	340.227495461486	220
0	1765	340.227495461486	221
0	1766	341.5	220
0	1772	342.794837886574	221
0	1773	342.794837886574	222
0	1774	343	221
0	1777	344.5	220
0	1783	344.554496591258	221
0	1784	344.554496591258	222
0	1788	344.573203215023	223
0	1789	344.573203215023	224
0	1790	346	223
0	1796	346.122331585065	224
0	1797	346.122331585065	225
0	1798	347.5	224
0	1804	348.956701042492	225
0	1805	348.956701042492	226
0	1806	349	225
0	1812	349.723097582603	226
0	1813	349.723097582603	227
0	1817	349.981767120065	228
0	1818	349.981767120065	229
0	1819	350.5	228
0	1825	351.10646445102	229
0	1826	351.10646445102	230
0	1827	352	229
0	1830	353.5	228
0	1836	353.802246067672	229
0	1837	353.802246067672	230
0	1841	354.151856588788	231
0	1842	354.151856588788	232
0	1843	355	231
0	1849	355.075169791141	232
0	1850	355.075169791141	233
0	1854	355.769221360259	234
0	1855	355.769221360259	235
0	1856	356.5	234
0	1862	357.30075536947	235
0	1863	357.30075536947	236
0	1864	358	235
0	1870	358.901672790873	236
0	1871	358.901672790873	237
0	1872	359.5	236
0	1875	361	235
0	1881	361.686137602592	236
0	1882	361.686137602592	237
0	1883	362.5	236
0	1889	363.608868249273	237
0	1890	363.608868249273	238
0	1891	364	237
0	1897	364.034812489781	238
0	1898	364.034812489781	239
0	1902	364.335655760638	240
0	1903	364.335655760638	241
0	1907	364.914377886385	242
0	1908	364.914377886385	243
0	1909	365.5	242
0	1915	366.866108013824	243
0	1916	366.866108013824	244
0	1917	367	243
0	1920	368.5	242
0	1926	368.838151818429	243
0	1927	368.838151818429	244
0	1928	370	243
0	1934	370.631454429225	244
0	1935	370.631454429225	245
0	1939	371.358739715279	246
0	1940	371.358739715279	247
0	1941	371.5	246
0	1944	373	245
0	1950	373.086700773956	246
0	1951	373.086700773956	247
0	1952	374.5	246
0	1958	375.470464498036	247
0	1959	375.470464498036	248
0	1960	376	247
0	1966	376.01290424444	248
0	1967	376.01290424444	249
0	1971	376.250908933898	250
0	1972	376.250908933898	251
0	1976	376.351031685248	252
0	1977	376.351031685248	253
0	1981	376.925929984202	254
0	1982	376.925929984202	255
0	1983	377.5	254
0	1989	378.986614600406	255
0	1990	378.986614600406	256
0	1991	379	255
0	1997	380.319585494621	256
0	1998	380.319585494621	257
0	1999	380.5	256
0	2005	381.288606545733	257
0	2006	381.288606545733	258
0	2007	382	257
0	2010	383.5	256
0	2016	383.808410456059	257
0	2017	383.808410456059	258
0	2018	385	257
0	2021	386.5	256
0	2027	386.513064443692	257
0	2028	386.513064443692	258
0	2032	386.639408418377	259
0	2033	386.639408418377	260
0	2034	388	259
0	2040	389.218823361533	260
0	2041	389.218823361533	261
0	2042	389.5	260
0	2048	389.998215498812	261
0	2049	389.998215498812	262
0	2050	391	261
0	2056	391.835920962188	262
0	2057	391.835920962188	263
0	2058	392.5	262
0	2064	393.44540006453	263
0	2065	393.44540006453	264
0	2066	394	263
0	2072	394.887703828098	264
0	2073	394.887703828098	265
0	2074	395.5	264
0	2080	396.202926789976	265
0	2081	396.202926789976	266
0	2082	397	265
0	2085	398.5	264
0	2088	400	263
0	2094	400.724822886969	264
0	2095	400.724822886969	265
0	2096	401.5	264
0	2102	401.661817718113	265
0	2103	401.661817718113	266
0	2104	403	265
0	2110	404.358914449735	266
0	2111	404.358914449735	267
0	2112	404.5	266
0	2118	405.180025628117	267
0	2119	405.180025628117	268
0	2120	406	267
0	2126	406.141689103699	268
0	2127	406.141689103699	269
0	2131	406.71164673096	270
0	2132	406.71164673096	271
0	2136	407.468482636118	272
0	2137	407.468482636118	273
0	2141	407.49324461246	274
0	2142	407.49324461246	275
0	2143	407.5	274
0	2149	408.123050155587	275
0	2150	408.123050155587	276
0	2154	408.9283585089	277
0	2155	408.9283585089	278
0	2156	409	277
0	2159	410.5	276
0	2165	411.394980089206	277
0	2166	411.394980089206	278
0	2167	412	277
0	2173	413.061273160231	278
0	2174	413.061273160231	279
0	2175	413.5	278
0	2181	414.355406180207	279
0	2182	414.355406180207	280
0	2183	415	279
0	2186	416.5	278
0	2192	417.113874512746	279
0	2193	417.113874512746	280
0	2197	417.871882463946	281
0	2198	417.871882463946	282
0	2199	418	281
0	2202	419.5	280
0	2208	419.608334474568	281
0	2209	419.608334474568	282
0	2213	420.046053130401	283
0	2214	420.046053130401	284
0	2218	420.959499221596	285
0	2219	420.959499221596	286
0	2220	421	285
0	2223	422.5	284
0	2229	423.201751180866	285
0	2230	423.201751180866	286
0	2234	423.57478659157	287
0	2235	423.57478659157	288
0	2236	424	287
0	2239	425.5	286
0	2242	427	285
0	2248	427.046701107695	286
0	2249	427.046701107695	287
0	2250	428.5	286
0	2256	428.514568825933	287
0	2257	428.514568825933	288
0	2261	429.392362409478	289
0	2262	429.392362409478	290
0	2266	429.454022222439	291
0	2267	429.454022222439	292
0	2268	430	291
0	2274	431.032053666823	292
0	2275	431.032053666823	293
0	2276	431.5	292
0	2282	432.823805050005	293
0	2283	432.823805050005	294
0	2284	433	293
0	2290	433.458200585544	294
0	2291	433.458200585544	295
0	2292	434.5	294
0	2298	435.27826654944	295
0	2299	435.27826654944	296
0	2300	436	295
0	2303	437.5	294
0	2309	438.709067934095	295
0	2310	438.709067934095	296
0	2311	439	295
0	2314	440.5	294
0	2320	440.500331422774	295
0	2321	440.500331422774	296
0	2322	442	295
0	2328	442.625475314433	296
0	2329	442.625475314433	297
0	2330	443.5	296
0	2336	443.565130039168	297
0	2337	443.565130039168	298
0	2341	443.930325976661	299
0	2342	443.930325976661	300
0	2343	445	299
0	2349	445.037959847584	300
0	2350	445.037959847584	301
0	2354	445.29858200854	302
0	2355	445.29858200854	303
0	2356	446.5	302
0	2359	448	301
0	2365	448.798184133879	302
0	2366	448.798184133879	303
0	2370	448.800878387768	304
0	2371	448.800878387768	305
0	2372	449.5	304
0	2378	450.416885590602	305
0	2379	450.416885590602	306
0	2383	450.608875109975	307
0	2384	450.608875109975	308
0	2385	451	307
0	2391	451.163273128958	308
0	2392	451.163273128958	309
0	2396	451.886240207027	310
0	2397	451.886240207027	311
0	2398	452.5	310
0	2404	453.445730174937	311
0	2405	453.445730174937	312
0	2406	454	311
0	2412	454.757329844105	312
0	2413	454.757329844105	313
0	2417	454.968418551556	314
0	2418	454.968418551556	315
0	2419	455.5	314
0	2425	456.968673566123	315
0	2426	456.968673566123	316
0	2427	457	315
0	2433	457.511754556647	316
0	2434	457.511754556647	317
0	2438	457.852244362969	318
0	2439	457.852244362969	319
0	2443	457.904563672729	320
0	2444	457.904563672729	321
0	2445	458.5	320
0	2448	460	319
0	2454	461.185625401627	320
0	2455	461.185625401627	321
0	2456	461.5	320
0	2462	461.700654878845	321
0	2463	461.700654878845	322
0	2464	463	321
0	2467	464.5	320
0	2470	466	319
0	2476	466.084062656234	320
0	2477	466.084062656234	321
0	2481	466.752107472274	322
0	2482	466.752107472274	323
0	2483	467.5	322
0	2489	468.036840704842	323
0	2490	468.036840704842	324
0	2491	469	323
0	2497	469.86043871589	324
0	2498	469.86043871589	325
0	2499	470.5	324
0	2505	470.733959212846	325
0	2506	470.733959212846	326
0	2510	471.517888160115	327
0	2511	471.517888160115	328
0	2512	472	327
0	2518	472.409969158179	328
0	2519	472.409969158179	329
0	2520	473.5	328
0	2526	473.943777336389	329
0	2527	473.943777336389	330
0	2528	475	329
0	2531	476.5	328
0	2537	476.602185047192	329
0	2538	476.602185047192	330
0	2539	478	329
0	2545	479.27808034019	330
0	2546	479.27808034019	331
0	2547	479.5	330
0	2553	480.89110157896	331
0	2554	480.89110157896	332
0	2555	481	331
0	2561	482.252587172109	332
0	2562	482.252587172109	333
0	2563	482.5	332
0	2569	482.699064999745	333
0	2570	482.699064999745	334
0	2574	483.003913580659	335
0	2575	483.003913580659	336
0	2579	483.776668957541	337
0	2580	483.776668957541	338
0	2581	484	337
0	2587	484.737446599146	338
0	2588	484.737446599146	339
0	2592	484.817164884822	340
0	2593	484.817164884822	341
0	2597	484.95714187262	342
0	2598	484.95714187262	343
0	2599	485.5	342
0	2602	487	341
0	2608	487.356679633155	342
0	2609	487.356679633155	343
0	2613	487.836581943555	344
0	2614	487.836581943555	345
0	2618	487.926648452017	346
0	2619	487.926648452017	347
0	2620	488.5	346
0	2626	489.387675938266	347
0	2627	489.387675938266	348
0	2628	490	347
0	2631	491.5	346
0	2637	492.709491643288	347
0	2638	492.709491643288	348
0	2639	493	347
0	2645	494.0328191184	348
0	2646	494.0328191184	349
0	2647	494.5	348
0	2650	496	347
0	2656	496.487315052386	348
0	2657	496.487315052386	349
0	2658	497.5	348
0	2664	498.15759940793	349
0	2665	498.15759940793	350
0	2666	499	349
0	2672	499.177757781617	350
0	2673	499.177757781617	351
0	2677	500.279908242513	352
0	2678	500.279908242513	353
0	2679	500.5	352
0	2685	501.283540595746	353
0	2686	501.283540595746	354
0	2687	502	353
0	2693	502.342884943186	354
0	2694	502.342884943186	355
0	2695	503.5	354
0	2701	504.062118859362	355
0	2702	504.062118859362	356
0	2703	505	355
0	2709	505.221438571342	356
0	2710	505.221438571342	357
0	2714	505.940392998982	358
0	2715	505.940392998982	359
0	2716	506.5	358
0	2722	507.219805263083	359
0	2723	507.219805263083	360
0	2724	508	359
0	2727	509.5	358
0	2733	509.709542847116	359
0	2734	509.709542847116	360
0	2738	510.875570193681	361
0	2739	510.875570193681	362
0	2740	511	361
0	2743	512.5	360
0	2749	512.890230056707	361
0	2750	512.890230056707	362
0	2754	513.385608887383	363
0	2755	513.385608887383	364
0	2759	513.751893296447	365
0	2760	513.751893296447	366
0	2761	514	365
0	2767	515.123082025598	366
0	2768	515.123082025598	367
0	2772	515.163117393321	368
0	2773	515.163117393321	369
0	2774	515.5	368
0	2777	517	367
0	2780	518.5	366
0	2786	519.116043093343	367
0	2787	519.116043093343	368
0	2791	519.550204997305	369
0	2792	519.550204997305	370
0	2793	520	369
0	2796	521.5	368
0	2802	522.899797423508	369
0	2803	522.899797423508	370
0	2804	523	369
0	2810	523.049000542197	370
0	2811	523.049000542197	371
0	2815	524.121490592846	372
0	2816	524.121490592846	373
0	2817	524.5	372
0	2823	525.28283274893	373
0	2824	525.28283274893	374
0	2828	525.890649724416	375
0	2829	525.890649724416	376
0	2830	526	375
0	2833	527.5	374
0	2839	527.51743081228	375
0	2840	527.51743081228	376
0	2841	529	375
0	2847	529.128859818355	376
0	2848	529.128859818355	377
0	2852	530.056703576834	378
0	2853	530.056703576834	379
0	2854	530.5	378
0	2860	531.432241100278	379
0	2861	531.432241100278	380
0	2862	532	379
0	2868	532.555511836618	380
0	2869	532.555511836618	381
0	2870	533.5	380
0	2876	534.574685989269	381
0	2877	534.574685989269	382
0	2878	535	381
0	2884	536.030490924441	382
0	2885	536.030490924441	383
0	2886	536.5	382
0	2889	538	381
0	2895	538.971280493328	382
0	2896	538.971280493328	383
0	2897	539.5	382
0	2903	539.642150132245	383
0	2904	539.642150132245	384
0	2908	540.762611538988	385
0	2909	540.762611538988	386
0	2910	541	385
0	2916	542.28054190249	386
0	2917	542.28054190249	387
0	2918	542.5	386
0	2921	544	385
0	2927	544.906993214507	386
0	2928	544.906993214507	387
0	2929	545.5	386
0	2932	547	385
0	2938	547.12619022666	386
0	2939	547.12619022666	387
0	2943	548.488901984057	388
0	2944	548.488901984057	389
0	2945	548.5	388
0	2951	548.523893794027	389
0	2952	548.523893794027	390
0	2956	549.666980756531	391
0	2957	549.666980756531	392
0	2961	549.900264195371	393
0	2962	549.900264195371	394
0	2963	550	393
0	2969	550.046720635339	394
0	2970	550.046720635339	395
0	2971	551.5	394
0	2977	552.760913396552	395
0	2978	552.760913396552	396
0	2979	553	395
0	2985	553.880938338683	396
0	2986	553.880938338683	397
0	2987	554.5	396
0	2993	554.815885975798	397
0	2994	554.815885975798	398
0	2995	556	397
0	3001	556.940515333037	398
0	3002	556.940515333037	399
0	3003	557.5	398
0	3009	558.731980909411	399
0	3010	558.731980909411	400
0	3014	558.977696255854	401
0	3015	558.977696255854	402
0	3016	559	401
0	3019	560.5	400
0	3025	561.565909861629	401
0	3026	561.565909861629	402
0	3027	562	401
0	3030	563.5	400
0	3033	565	399
0	3039	566.423790055667	400
0	3040	566.423790055667	401
0	3041	566.5	400
0	3047	566.781350848327	401
0	3048	566.781350848327	402
0	3052	567.534473916738	403
0	3053	567.534473916738	404
0	3054	568	403
0	3060	568.442904484305	404
0	3061	568.442904484305	405
0	3062	569.5	404
0	3068	570.095221900506	405
0	3069	570.095221900506	406
0	3070	571	405
0	3073	572.5	404
0	3079	573.050603905109	405
0	3080	573.050603905109	406
0	3084	573.8576931256	407
0	3085	573.8576931256	408
0	3086	574	407
0	3092	575.214554041456	408
0	3093	575.214554041456	409
0	3094	575.5	408
0	3100	575.538914066954	409
0	3101	575.538914066954	410
0	3102	577	409
0	3108	578.010187092796	410
0	3109	578.010187092796	411
0	3110	578.5	410
0	3116	578.646745642519	411
0	3117	578.646745642519	412
0	3121	578.717116499172	413
0	3122	578.717116499172	414
0	3126	579.5685186549	415
0	3127	579.5685186549	416
0	3128	580	415
0	3134	580.397176341418	416
0	3135	580.397176341418	417
0	3136	581.5	416
0	3139	583	415
0	3145	583.971393636716	416
0	3146	583.971393636716	417
0	3147	584.5	416
0	3150	586	415
0	3153	587.5	414
0	3159	587.531437865162	415
0	3160	587.531437865162	416
0	3164	588.026095638686	417
0	3165	588.026095638686	418
0	3169	588.461021646007	419
0	3170	588.461021646007	420
0	3174	588.473874176316	421
0	3175	588.473874176316	422
0	3176	589	421
0	3182	590.326377599332	422
0	3183	590.326377599332	423
0	3184	590.5	422
0	3190	590.840632205925	423
0	3191	590.840632205925	424
0	3192	592	423
0	3198	592.934897694797	424
0	3199	592.934897694797	425
0	3200	593.5	424
0	3206	594.453505198981	425
0	3207	594.453505198981	426
0	3211	594.931544273778	427
0	3212	594.931544273778	428
0	3213	595	427
0	3219	595.992773059862	428
0	3220	595.992773059862	429
0	3221	596.5	428
0	3227	597.069334013606	429
0	3228	597.069334013606	430
0	3232	597.452834616176	431
0	3233	597.452834616176	432
0	3234	598	431
0	3240	598.018734116049	432
0	3241	598.018734116049	433
0	3245	598.537896786128	434
0	3246	598.537896786128	435
0	3247	599.5	434
0	3250	601	433
0	3256	601.516977023548	434
0	3257	601.516977023548	435
0	3261	601.827735824507	436
0	3262	601.827735824507	437
0	3263	602.5	436
0	3266	604	435
0	3269	605.5	434
0	3275	605.532241521701	435