version 3
run k_MM1_rand-10-20221127-16:03:21-5740
attr configname k_MM1_rand
attr datetime 20221127-16:03:21
attr datetimef 20221127-160321
attr experiment k_MM1_rand
attr inifile omnetpp.ini
attr iterationvars "$time=1.5, $num=1, $0=47853, $1=24674, $2=96433"
attr iterationvarsd time=1.5/num=1/47853/24674/96433
attr iterationvarsf time=1.5,num=1,47853,24674,96433-
attr measurement "$time=1.5, $num=1, $0=47853, $1=24674, $2=96433"
attr network randkMM1
attr processid 5740
attr repetition 2
attr replication #2
attr resultdir results
attr runnumber 10
attr seedset 10
itervar num 1
itervar time 1.5
config description "MM1 module k-times random"
config network randkMM1
config **.source.interArrivalTime "truncnormal(0.5s, 1.5s)"
config **.serviceTime 1.5s
config **.c 1
config **.capacity 10000
config record-eventlog false
config **.scalar-recording true
config **.vector-recording true
config repeat 4
config seed-1-mt 47853
config seed-2-mt 24674
config seed-3-mt 96433
config output-vector-file k_MM1_rand-1-1.5-results/2.vec
config output-scalar-file k_MM1_rand-1-1.5-results/2.sca

vector 0 randkMM1.mm1[0] queueLength:vector ETV
attr interpolationmode none
attr recordingmode vector
attr title "queue length"
vector 1 randkMM1.mm1[0] util:vector ETV
attr interpolationmode none
attr recordingmode vector
attr title resources
0	5	10	1
0	9	10.192986438305	2
0	10	10.192986438305	3
0	11	11.5	2
0	17	11.920324704818	3
0	18	11.920324704818	4
0	19	13	3
0	25	13.477401158247	4
0	26	13.477401158247	5
0	30	13.724749899656	6
0	31	13.724749899656	7
0	35	13.977098739926	8
0	36	13.977098739926	9
0	40	14.399155835964	10
0	41	14.399155835964	11
0	42	14.5	10
0	48	15.277114931701	11
0	49	15.277114931701	12
0	50	16	11
0	56	17.286530827431	12
0	57	17.286530827431	13
0	58	17.5	12
0	64	17.717840009283	13
0	65	17.717840009283	14
0	66	19	13
0	72	19.608535374985	14
0	73	19.608535374985	15
0	74	20.5	14
0	80	20.987580580074	15
0	81	20.987580580074	16
0	82	22	15
0	85	23.5	14
0	91	23.515025234347	15
0	92	23.515025234347	16
0	93	25	15
0	99	25.739231672763	16
0	100	25.739231672763	17
0	104	26.063135082792	18
0	105	26.063135082792	19
0	106	26.5	18
0	109	28	17
0	115	28.173201396281	18
0	116	28.173201396281	19
0	120	28.822337846236	20
0	121	28.822337846236	21
0	122	29.5	20
0	128	30.245016982871	21
0	129	30.245016982871	22
0	130	31	21
0	136	31.490214247792	22
0	137	31.490214247792	23
0	138	32.5	22
0	144	33.252311690998	23
0	145	33.252311690998	24
0	149	33.316676516867	25
0	150	33.316676516867	26
0	151	34	25
0	157	35.465836838503	26
0	158	35.465836838503	27
0	159	35.5	26
0	162	37	25
0	168	38.005199263007	26
0	169	38.005199263007	27
0	170	38.5	26
0	176	38.702363156025	27
0	177	38.702363156025	28
0	178	40	27
0	181	41.5	26
0	187	41.908142907317	27
0	188	41.908142907317	28
0	192	42.073873656991	29
0	193	42.073873656991	30
0	194	43	29
0	200	43.227455197167	30
0	201	43.227455197167	31
0	202	44.5	30
0	208	45.426894259149	31
0	209	45.426894259149	32
0	213	45.494644532543	33
0	214	45.494644532543	34
0	215	46	33
0	218	47.5	32
0	224	47.511003933239	33
0	225	47.511003933239	34
0	229	47.794661938174	35
0	230	47.794661938174	36
0	231	49	35
0	237	50.079607451813	36
0	238	50.079607451813	37
0	239	50.5	36
0	245	50.685375435219	37
0	246	50.685375435219	38
0	247	52	37
0	253	52.642499636627	38
0	254	52.642499636627	39
0	255	53.5	38
0	261	54.016403533689	39
0	262	54.016403533689	40
0	263	55	39
0	266	56.5	38
0	272	57.611786850946	39
0	273	57.611786850946	40
0	274	58	39
0	280	58.751761075955	40
0	281	58.751761075955	41
0	285	58.824275210718	42
0	286	58.824275210718	43
0	287	59.5	42
0	293	59.775203334571	43
0	294	59.775203334571	44
0	295	61	43
0	301	61.807701313065	44
0	302	61.807701313065	45
0	306	61.843182379608	46
0	307	61.843182379608	47
0	308	62.5	46
0	314	63.999901633465	47
0	315	63.999901633465	48
0	316	64	47
0	322	65.041980457745	48
0	323	65.041980457745	49
0	324	65.5	48
0	327	67	47
0	333	67.545348692767	48
0	334	67.545348692767	49
0	338	67.64051119585	50
0	339	67.64051119585	51
0	340	68.5	50
0	346	69.125206919736	51
0	347	69.125206919736	52
0	348	70	51
0	354	70.161016242892	52
0	355	70.161016242892	53
0	359	70.781234540201	54
0	360	70.781234540201	55
0	361	71.5	54
0	367	71.846167640268	55
0	368	71.846167640268	56
0	372	72.470721107774	57
0	373	72.470721107774	58
0	374	73	57
0	380	73.175838405314	58
0	381	73.175838405314	59
0	382	74.5	58
0	388	75.279655056381	59
0	389	75.279655056381	60
0	393	75.828121228333	61
0	394	75.828121228333	62
0	398	75.896160503061	63
0	399	75.896160503061	64
0	400	76	63
0	406	77.275522340129	64
0	407	77.275522340129	65
0	408	77.5	64
0	414	78.969959439423	65
0	415	78.969959439423	66
0	416	79	65
0	422	79.228071917247	66
0	423	79.228071917247	67
0	427	80.058443433168	68
0	428	80.058443433168	69
0	429	80.5	68
0	435	81.675256011812	69
0	436	81.675256011812	70
0	437	82	69
0	443	82.149381111196	70
0	444	82.149381111196	71
0	448	83.441776165629	72
0	449	83.441776165629	73
0	450	83.5	72
0	456	83.524870053027	73
0	457	83.524870053027	74
0	458	85	73
0	461	86.5	72
0	467	86.80829193532	73
0	468	86.80829193532	74
0	469	88	73
0	475	88.625061930308	74
0	476	88.625061930308	75
0	477	89.5	74
0	480	91	73
0	486	92.367224563811	74
0	487	92.367224563811	75
0	488	92.5	74
0	494	93.539663653258	75
0	495	93.539663653258	76
0	496	94	75
0	499	95.5	74
0	505	95.684400572265	75
0	506	95.684400572265	76
0	507	97	75
0	513	97.98323370628	76
0	514	97.98323370628	77
0	518	98.189610793462	78
0	519	98.189610793462	79
0	520	98.5	78
0	523	100	77
0	529	100.67855017602	78
0	530	100.67855017602	79
0	534	100.815078436928	80
0	535	100.815078436928	81
0	536	101.5	80
0	542	101.589405520293	81
0	543	101.589405520293	82
0	547	102.931940203807	83
0	548	102.931940203807	84
0	549	103	83
0	552	104.5	82
0	558	104.969359753319	83
0	559	104.969359753319	84
0	560	106	83
0	566	107.236885865634	84
0	567	107.236885865634	85
0	568	107.5	84
0	574	107.9788176215	85
0	575	107.9788176215	86
0	579	108.619897706029	87
0	580	108.619897706029	88
0	581	109	87
0	587	109.879238036315	88
0	588	109.879238036315	89
0	589	110.5	88
0	595	111.043602555993	89
0	596	111.043602555993	90
0	600	111.573702269895	91
0	601	111.573702269895	92
0	602	112	91
0	608	113.127556580283	92
0	609	113.127556580283	93
0	610	113.5	92
0	616	114.338336690311	93
0	617	114.338336690311	94
0	618	115	93
0	624	115.019856136043	94
0	625	115.019856136043	95
0	629	115.343899775648	96
0	630	115.343899775648	97
0	631	116.5	96
0	637	117.812789307733	97
0	638	117.812789307733	98
0	639	118	97
0	645	118.651715564771	98
0	646	118.651715564771	99
0	650	118.823285533096	100
0	651	118.823285533096	101
0	652	119.5	100
0	658	119.851055856704	101
0	659	119.851055856704	102
0	663	119.880399362926	103
0	664	119.880399362926	104
0	665	121	103
0	671	121.458292572051	104
0	672	121.458292572051	105
0	673	122.5	104
0	679	122.846781682161	105
0	680	122.846781682161	106
0	681	124	105
0	684	125.5	104
0	690	126.47872718775	105
0	691	126.47872718775	106
0	692	127	105
0	698	127.334744401171	106
0	699	127.334744401171	107
0	700	128.5	106
0	706	129.038828086817	107
0	707	129.038828086817	108
0	711	129.529527470901	109
0	712	129.529527470901	110
0	713	130	109
0	719	131.333672892727	110
0	720	131.333672892727	111
0	721	131.5	110
0	724	133	109
0	730	133.705341658982	110
0	731	133.705341658982	111
0	732	134.5	110
0	738	135.46416823801	111
0	739	135.46416823801	112
0	740	136	111
0	746	136.724228413818	112
0	747	136.724228413818	113
0	748	137.5	112
0	754	138.113169656887	113
0	755	138.113169656887	114
0	759	138.55528423929	115
0	760	138.55528423929	116
0	761	139	115
0	767	139.955291148207	116
0	768	139.955291148207	117
0	769	140.5	116
0	775	140.647497861642	117
0	776	140.647497861642	118
0	780	141.308402320737	119
0	781	141.308402320737	120
0	782	142	119
0	788	143.218438343211	120
0	789	143.218438343211	121
0	790	143.5	120
0	796	143.871756200985	121
0	797	143.871756200985	122
0	798	145	121
0	801	146.5	120
0	807	146.986741469488	121
0	808	146.986741469488	122
0	812	147.351355364579	123
0	813	147.351355364579	124
0	814	148	123
0	820	149.163172707546	124
0	821	149.163172707546	125
0	822	149.5	124
0	828	150.359619430727	125
0	829	150.359619430727	126
0	830	151	125
0	836	151.239333338015	126
0	837	151.239333338015	127
0	841	151.390194117589	128
0	842	151.390194117589	129
0	843	152.5	128
0	846	154	127
0	852	154.084527242978	128
0	853	154.084527242978	129
0	857	154.585896047491	130
0	858	154.585896047491	131
0	859	155.5	130
0	865	155.986022156159	131
0	866	155.986022156159	132
0	867	157	131
0	870	158.5	130
0	876	159.114668684688	131
0	877	159.114668684688	132
0	878	160	131
0	884	160.123967172762	132
0	885	160.123967172762	133
0	889	160.829647077977	134
0	890	160.829647077977	135
0	891	161.5	134
0	897	161.544601230786	135
0	898	161.544601230786	136
0	899	163	135
0	905	164.48040106026	136
0	906	164.48040106026	137
0	907	164.5	136
0	913	165.472576703059	137
0	914	165.472576703059	138
0	915	166	137
0	918	167.5	136
0	924	167.624696589628	137
0	925	167.624696589628	138
0	926	169	137
0	932	169.914082589826	138
0	933	169.914082589826	139
0	934	170.5	138
0	940	170.959311900038	139
0	941	170.959311900038	140
0	942	172	139
0	945	173.5	138
0	951	173.784477227293	139
0	952	173.784477227293	140
0	956	174.49219901115	141
0	957	174.49219901115	142
0	961	174.891275722652	143
0	962	174.891275722652	144
0	963	175	143
0	966	176.5	142
0	972	176.949216378283	143
0	973	176.949216378283	144
0	977	177.448523920379	145
0	978	177.448523920379	146
0	982	177.955715242555	147
0	983	177.955715242555	148
0	987	177.958758186948	149
0	988	177.958758186948	150
0	989	178	149
0	995	178.789195213542	150
0	996	178.789195213542	151
0	1000	179.348664942406	152
0	1001	179.348664942406	153
0	1002	179.5	152
0	1008	180.837558859377	153
0	1009	180.837558859377	154
0	1010	181	153
0	1016	181.370230787445	154
0	1017	181.370230787445	155
0	1018	182.5	154
0	1021	184	153
0	1027	184.295274276737	154
0	1028	184.295274276737	155
0	1032	185.340404090922	156
0	1033	185.340404090922	157
0	1034	185.5	156
0	1037	187	155
0	1043	188.024044394464	156
0	1044	188.024044394464	157
0	1045	188.5	156
0	1051	189.164599022167	157
0	1052	189.164599022167	158
0	1053	190	157
0	1059	190.706763076337	158
0	1060	190.706763076337	159
0	1064	190.712155996407	160
0	1065	190.712155996407	161
0	1066	191.5	160
0	1069	193	159
0	1075	194.279064081209	160
0	1076	194.279064081209	161
0	1077	194.5	160
0	1083	194.84043061294	161
0	1084	194.84043061294	162
0	1085	196	161
0	1088	197.5	160
0	1094	197.568267757517	161
0	1095	197.568267757517	162
0	1099	198.61198946679	163
0	1100	198.61198946679	164
0	1104	198.902035454579	165
0	1105	198.902035454579	166
0	1106	199	165
0	1112	199.240666431496	166
0	1113	199.240666431496	167
0	1117	199.597281166507	168
0	1118	199.597281166507	169
0	1122	200.032841599457	170
0	1123	200.032841599457	171
0	1127	200.396230400588	172
0	1128	200.396230400588	173
0	1129	200.5	172
0	1135	200.790669985137	173
0	1136	200.790669985137	174
0	1140	201.562214678789	175
0	1141	201.562214678789	176
0	1142	202	175
0	1148	203.344411810335	176
0	1149	203.344411810335	177
0	1150	203.5	176
0	1153	205	175
0	1159	205.481833530663	176
0	1160	205.481833530663	177
0	1161	206.5	176
0	1167	207.895167965835	177
0	1168	207.895167965835	178
0	1169	208	177
0	1172	209.5	176
0	1178	210.137972860101	177
0	1179	210.137972860101	178
0	1180	211	177
0	1183	212.5	176
0	1189	213.632431085065	177
0	1190	213.632431085065	178
0	1191	214	177
0	1197	214.450413814885	178
0	1198	214.450413814885	179
0	1202	214.788613279472	180
0	1203	214.788613279472	181
0	1204	215.5	180
0	1207	217	179
0	1213	217.930613331201	180
0	1214	217.930613331201	181
0	1218	217.954142452674	182
0	1219	217.954142452674	183
0	1220	218.5	182
0	1226	219.900557409577	183
0	1227	219.900557409577	184
0	1228	220	183
0	1234	220.697380643938	184
0	1235	220.697380643938	185
0	1236	221.5	184
0	1242	222.258029864772	185
0	1243	222.258029864772	186
0	1244	223	185
0	1250	224.110469976149	186
0	1251	224.110469976149	187
0	1255	224.276191592879	188
0	1256	224.276191592879	189
0	1257	224.5	188
0	1260	226	187
0	1266	226.782774289136	188
0	1267	226.782774289136	189
0	1271	227.449637399997	190
0	1272	227.449637399997	191
0	1273	227.5	190
0	1279	228.103976359428	191
0	1280	228.103976359428	192
0	1284	228.711221380896	193
0	1285	228.711221380896	194
0	1286	229	193
0	1292	229.92278019543	194
0	1293	229.92278019543	195
0	1294	230.5	194
0	1297	232	193
0	1300	233.5	192
0	1306	233.639199777321	193
0	1307	233.639199777321	194
0	1311	233.813485689341	195
0	1312	233.813485689341	196
0	1313	235	195
0	1319	235.008635733013	196
0	1320	235.008635733013	197
0	1324	235.8430986471	198
0	1325	235.8430986471	199
0	1326	236.5	198
0	1332	237.18142568436	199
0	1333	237.18142568436	200
0	1334	238	199
0	1337	239.5	198
0	1343	240.646785815797	199
0	1344	240.646785815797	200
0	1345	241	199
0	1351	241.094489815124	200
0	1352	241.094489815124	201
0	1353	242.5	200
0	1359	242.94134642164	201
0	1360	242.94134642164	202
0	1364	243.670724338901	203
0	1365	243.670724338901	204
0	1366	244	203
0	1372	244.047211302688	204
0	1373	244.047211302688	205
0	1374	245.5	204
0	1380	245.99416472857	205
0	1381	245.99416472857	206
0	1382	247	205
0	1388	247.119494524206	206
0	1389	247.119494524206	207
0	1390	248.5	206
0	1396	249.757699648814	207
0	1397	249.757699648814	208
0	1398	250	207
0	1404	250.175684993359	208
0	1405	250.175684993359	209
0	1409	250.226122947648	210
0	1410	250.226122947648	211
0	1411	251.5	210
0	1417	251.727272865995	211
0	1418	251.727272865995	212
0	1419	253	211
0	1425	253.398097538022	212
0	1426	253.398097538022	213
0	1430	253.47984459765	214
0	1431	253.47984459765	215
0	1432	254.5	214
0	1438	255.358484824351	215
0	1439	255.358484824351	216
0	1443	255.591762128707	217
0	1444	255.591762128707	218
0	1445	256	217
0	1451	256.203758878516	218
0	1452	256.203758878516	219
0	1456	256.835665131956	220
0	1457	256.835665131956	221
0	1458	257.5	220
0	1464	257.991785227942	221
0	1465	257.991785227942	222
0	1466	259	221
0	1472	260.455583992892	222
0	1473	260.455583992892	223
0	1474	260.5	222
0	1480	260.877540367777	223
0	1481	260.877540367777	224
0	1482	262	223
0	1488	263.084491166653	224
0	1489	263.084491166653	225
0	1493	263.212150250357	226
0	1494	263.212150250357	227
0	1495	263.5	226
0	1498	265	225
0	1504	265.369092024676	226
0	1505	265.369092024676	227
0	1506	266.5	226
0	1512	267.623220192368	227
0	1513	267.623220192368	228
0	1514	268	227
0	1520	268.553732615375	228
0	1521	268.553732615375	229
0	1522	269.5	228
0	1528	269.824493531544	229
0	1529	269.824493531544	230
0	1533	270.458011082746	231
0	1534	270.458011082746	232
0	1535	271	231
0	1541	272.201064725954	232
0	1542	272.201064725954	233
0	1543	272.5	232
0	1549	272.994051100574	233
0	1550	272.994051100574	234
0	1554	273.759779794751	235
0	1555	273.759779794751	236
0	1559	273.964553487569	237
0	1560	273.964553487569	238
0	1561	274	237
0	1567	274.327725563144	238
0	1568	274.327725563144	239
0	1572	275.132444634045	240
0	1573	275.132444634045	241
0	1577	275.32165318294	242
0	1578	275.32165318294	243
0	1579	275.5	242
0	1585	275.659291242263	243
0	1586	275.659291242263	244
0	1587	277	243
0	1590	278.5	242
0	1596	279.532380408623	243
0	1597	279.532380408623	244
0	1598	280	243
0	1604	280.981373443486	244
0	1605	280.981373443486	245
0	1606	281.5	244
0	1612	282.332842856444	245
0	1613	282.332842856444	246
0	1614	283	245
0	1620	283.19520407276	246
0	1621	283.19520407276	247
0	1622	284.5	246
0	1628	284.761013787009	247
0	1629	284.761013787009	248
0	1633	285.868281717279	249
0	1634	285.868281717279	250
0	1635	286	249
0	1641	286.118532235134	250
0	1642	286.118532235134	251
0	1643	287.5	250
0	1649	287.813411754732	251
0	1650	287.813411754732	252
0	1654	288.017171260794	253
0	1655	288.017171260794	254
0	1659	288.3596221154	255
0	1660	288.3596221154	256
0	1661	289	255
0	1667	289.703572527686	256
0	1668	289.703572527686	257
0	1669	290.5	256
0	1675	290.851001326979	257
0	1676	290.851001326979	258
0	1677	292	257
0	1683	292.958251022163	258
0	1684	292.958251022163	259
0	1685	293.5	258
0	1691	293.660645285525	259
0	1692	293.660645285525	260
0	1693	295	259
0	1696	296.5	258
0	1702	296.78726471158	259
0	1703	296.78726471158	260
0	1707	297.4295883062	261
0	1708	297.4295883062	262
0	1709	298	261
0	1715	298.68245881564	262
0	1716	298.68245881564	263
0	1717	299.5	262
0	1723	299.638635063005	263
0	1724	299.638635063005	264
0	1725	301	263
0	1728	302.5	262
0	1734	303.427499805753	263
0	1735	303.427499805753	264
0	1736	304	263
0	1742	305.263003488944	264
0	1743	305.263003488944	265
0	1744	305.5	264
0	1750	305.664754911183	265
0	1751	305.664754911183	266
0	1755	306.523354156926	267
0	1756	306.523354156926	268
0	1757	307	267
0	1760	308.5	266
0	1766	309.589816857503	267
0	1767	309.589816857503	268
0	1768	310	267
0	1771	311.5	266
0	1777	312.313904704938	267
0	1778	312.313904704938	268
0	1779	313	267
0	1785	313.302614845251	268
0	1786	313.302614845251	269
0	1790	313.406747357653	270
0	1791	313.406747357653	271
0	1792	314.5	270
0	1798	315.618177006641	271
0	1799	315.618177006641	272
0	1803	315.712120777092	273
0	1804	315.712120777092	274
0	1805	316	273
0	1811	316.840159799496	274
0	1812	316.840159799496	275
0	1813	317.5	274
0	1816	319	273
0	1822	319.124606909556	274
0	1823	319.124606909556	275
0	1827	319.531734052961	276
0	1828	319.531734052961	277
0	1832	319.564726851846	278
0	1833	319.564726851846	279
0	1834	320.5	278
0	1840	321.534985040917	279
0	1841	321.534985040917	280
0	1842	322	279
0	1848	322.024854690562	280
0	1849	322.024854690562	281
0	1853	323.159405856037	282
0	1854	323.159405856037	283
0	1855	323.5	282
0	1858	325	281
0	1864	325.678816475254	282
0	1865	325.678816475254	283
0	1866	326.5	282
0	1872	327.31437764518	283
0	1873	327.31437764518	284
0	1877	327.59696000685	285
0	1878	327.59696000685	286
0	1882	327.76917540917	287
0	1883	327.76917540917	288
0	1884	328	287
0	1887	329.5	286
0	1893	330.142398383983	287
0	1894	330.142398383983	288
0	1895	331	287
0	1901	331.111269364255	288
0	1902	331.111269364255	289
0	1906	331.574826685933	290
0	1907	331.574826685933	291
0	1911	331.914517975987	292
0	1912	331.914517975987	293
0	1916	332.410528986793	294
0	1917	332.410528986793	295
0	1918	332.5	294
0	1924	332.821830467738	295
0	1925	332.821830467738	296
0	1926	334	295
0	1929	335.5	294
0	1932	337	293
0	1938	337.090779341425	294
0	1939	337.090779341425	295
0	1943	337.099839718166	296
0	1944	337.099839718166	297
0	1948	337.917531193258	298
0	1949	337.917531193258	299
0	1950	338.5	298
0	1956	339.494899072173	299
0	1957	339.494899072173	300
0	1958	340	299
0	1964	340.538211111607	300
0	1965	340.538211111607	301
0	1966	341.5	300
0	1972	342.131528774139	301
0	1973	342.131528774139	302
0	1977	342.792942875095	303
0	1978	342.792942875095	304
0	1979	343	303
0	1982	344.5	302
0	1988	344.581891196562	303
0	1989	344.581891196562	304
0	1993	345.479879943111	305
0	1994	345.479879943111	306
0	1995	346	305
0	2001	346.968705914286	306
0	2002	346.968705914286	307
0	2003	347.5	306
0	2006	349	305
0	2012	349.443213630351	306
0	2013	349.443213630351	307
0	2014	350.5	306
0	2020	351.746554005885	307
0	2021	351.746554005885	308
0	2022	352	307
0	2028	352.080028836976	308
0	2029	352.080028836976	309
0	2030	353.5	308
0	2036	354.541450471523	309
0	2037	354.541450471523	310
0	2041	354.603036150054	311
0	2042	354.603036150054	312
0	2043	355	311
0	2049	355.60660973791	312
0	2050	355.60660973791	313
0	2051	356.5	312
0	2057	357.64545932907	313
0	2058	357.64545932907	314
0	2059	358	313
0	2065	358.196695289248	314
0	2066	358.196695289248	315
0	2067	359.5	314
0	2073	359.847104779459	315
0	2074	359.847104779459	316
0	2075	361	315
0	2081	362.463583239555	316
0	2082	362.463583239555	317
0	2083	362.5	316
0	2086	364	315
0	2092	364.696659177853	316
0	2093	364.696659177853	317
0	2097	365.318646333999	318
0	2098	365.318646333999	319
0	2099	365.5	318
0	2105	366.930761496387	319
0	2106	366.930761496387	320
0	2107	367	319
0	2110	368.5	318
0	2116	369.790369281437	319
0	2117	369.790369281437	320
0	2118	370	319
0	2124	370.272697736946	320
0	2125	370.272697736946	321
0	2129	371.048320321025	322
0	2130	371.048320321025	323
0	2131	371.5	322
0	2134	373	321
0	2140	373.208764274263	322
0	2141	373.208764274263	323
0	2145	373.429375495143	324
0	2146	373.429375495143	325
0	2150	373.733664412496	326
0	2151	373.733664412496	327
0	2155	374.45080534166	328
0	2156	374.45080534166	329
0	2157	374.5	328
0	2163	375.989049715406	329
0	2164	375.989049715406	330
0	2165	376	329
0	2168	377.5	328
0	2174	378.12127126447	329
0	2175	378.12127126447	330
0	2176	379	329
0	2182	380.081796731281	330
0	2183	380.081796731281	331
0	2184	380.5	330
0	2190	380.769433303847	331
0	2191	380.769433303847	332
0	2195	381.204995329383	333
0	2196	381.204995329383	334
0	2197	382	333
0	2203	383.403932919625	334
0	2204	383.403932919625	335
0	2205	383.5	334
0	2211	384.08399496376	335
0	2212	384.08399496376	336
0	2213	385	335
0	2219	385.419838692793	336
0	2220	385.419838692793	337
0	2224	385.990228549848	338
0	2225	385.990228549848	339
0	2226	386.5	338
0	2229	388	337
0	2235	389.183320101015	338
0	2236	389.183320101015	339
0	2237	389.5	338
0	2243	390.308666322902	339
0	2244	390.308666322902	340
0	2245	391	339
0	2251	392.000144944299	340
0	2252	392.000144944299	341
0	2256	392.322494845273	342
0	2257	392.322494845273	343
0	2258	392.5	342
0	2264	393.387225343065	343
0	2265	393.387225343065	344
0	2269	393.556386042736	345
0	2270	393.556386042736	346
0	2271	394	345
0	2277	395.255961520227	346
0	2278	395.255961520227	347
0	2279	395.5	346
0	2282	397	345
0	2288	397.6662599154	346
0	2289	397.6662599154	347
0	2293	398.425809292597	348
0	2294	398.425809292597	349
0	2295	398.5	348
0	2298	400	347
0	2304	400.770529330875	348
0	2305	400.770529330875	349
0	2306	401.5	348
0	2309	403	347
0	2315	403.602712382385	348
0	2316	403.602712382385	349
0	2317	404.5	348
0	2320	406	347
0	2326	407.149510721596	348
0	2327	407.149510721596	349
0	2328	407.5	348
0	2331	409	347
0	2337	409.546451940593	348
0	2338	409.546451940593	349
0	2339	410.5	348
0	2345	410.519259864114	349
0	2346	410.519259864114	350
0	2350	411.893237175247	351
0	2351	411.893237175247	352
0	2352	412	351
0	2358	412.13286538354	352
0	2359	412.13286538354	353
0	2363	413.038069304411	354
0	2364	413.038069304411	355
0	2368	413.25150574035	356
0	2369	413.25150574035	357
0	2370	413.5	356
0	2373	415	355
0	2379	415.545811908294	356
0	2380	415.545811908294	357
0	2384	416.259058844977	358
0	2385	416.259058844977	359
0	2386	416.5	358
0	2392	417.582374270944	359
0	2393	417.582374270944	360
0	2394	418	359
0	2400	418.009666633722	360
0	2401	418.009666633722	361
0	2402	419.5	360
0	2408	419.652492229665	361
0	2409	419.652492229665	362
0	2413	419.9203633821	363
0	2414	419.9203633821	364
0	2418	420.642280817086	365
0	2419	420.642280817086	366
0	2420	421	365
0	2423	422.5	364
0	2429	423.377432028708	365
0	2430	423.377432028708	366
0	2434	423.766083599393	367
0	2435	423.766083599393	368
0	2436	424	367
0	2442	425.201917910672	368
0	2443	425.201917910672	369
0	2444	425.5	368
0	2447	427	367
0	2453	427.116365666913	368
0	2454	427.116365666913	369
0	2458	427.768943209418	370
0	2459	427.768943209418	371
0	2460	428.5	370
0	2463	430	369
0	2469	430.005386383602	370
0	2470	430.005386383602	371
0	2471	431.5	370
0	2477	432.219572729068	371
0	2478	432.219572729068	372
0	2482	432.783639601284	373
0	2483	432.783639601284	374
0	2484	433	373
0	2490	433.471512033968	374
0	2491	433.471512033968	375
0	2495	434.07218198514	376
0	2496	434.07218198514	377
0	2497	434.5	376
0	2503	434.734017148838	377
0	2504	434.734017148838	378
0	2508	435.846253594974	379
0	2509	435.846253594974	380
0	2510	436	379
0	2513	437.5	378
0	2519	437.847199749675	379
0	2520	437.847199749675	380
0	2524	437.982826393335	381
0	2525	437.982826393335	382
0	2529	438.532540530268	383
0	2530	438.532540530268	384
0	2531	439	383
0	2537	439.063365168287	384
0	2538	439.063365168287	385
0	2539	440.5	384
0	2545	441.644041802518	385
0	2546	441.644041802518	386
0	2550	441.875315375116	387
0	2551	441.875315375116	388
0	2552	442	387
0	2558	443.020955524611	388
0	2559	443.020955524611	389
0	2563	443.253542184567	390
0	2564	443.253542184567	391
0	2565	443.5	390
0	2568	445	389
0	2574	446.065987173694	390
0	2575	446.065987173694	391
0	2576	446.5	390
0	2579	448	389
0	2585	448.619503752299	390
0	2586	448.619503752299	391
0	2590	448.716387265045	392
0	2591	448.716387265045	393
0	2595	449.149829634413	394
0	2596	449.149829634413	395
0	2597	449.5	394
0	2603	450.671635260099	395
0	2604	450.671635260099	396
0	2605	451	395
0	2608	452.5	394
0	2614	453.803431342766	395
0	2615	453.803431342766	396
0	2616	454	395
0	2622	455.287299870025	396
0	2623	455.287299870025	397
0	2624	455.5	396
0	2627	457	395
0	2633	457.974086003577	396
0	2634	457.974086003577	397
0	2635	458.5	396
0	2638	460	395
0	2644	460.391775146438	396
0	2645	460.391775146438	397
0	2649	460.828669188037	398
0	2650	460.828669188037	399
0	2654	461.217865046158	400
0	2655	461.217865046158	401
0	2656	461.5	400
0	2662	461.854417460718	401
0	2663	461.854417460718	402
0	2667	462.82068386434	403
0	2668	462.82068386434	404
0	2669	463	403
0	2675	464.224189533745	404
0	2676	464.224189533745	405
0	2680	464.486997055791	406
0	2681	464.486997055791	407
0	2682	464.5	406
0	2688	465.382869969363	407
0	2689	465.382869969363	408
0	2690	466	407
0	2696	466.536089560445	408
0	2697	466.536089560445	409
0	2698	467.5	408
0	2701	469	407
0	2707	469.175397045681	408
0	2708	469.175397045681	409
0	2712	469.787571877401	410
0	2713	469.787571877401	411
0	2717	470.344028124108	412
0	2718	470.344028124108	413
0	2719	470.5	412
0	2725	470.786472143102	413
0	2726	470.786472143102	414
0	2727	472	413
0	2733	472.746379915927	414
0	2734	472.746379915927	415
0	2735	473.5	414
0	2741	473.942122513438	415
0	2742	473.942122513438	416
0	2746	474.565342162929	417
0	2747	474.565342162929	418
0	2748	475	417
0	2754	475.42232215461	418
0	2755	475.42232215461	419
0	2759	475.655848987521	420
0	2760	475.655848987521	421
0	2764	476.305728405823	422
0	2765	476.305728405823	423
0	2766	476.5	422
0	2772	477.709367391549	423
0	2773	477.709367391549	424
0	2774	478	423
0	2780	479.262338590649	424
0	2781	479.262338590649	425
0	2782	479.5	424
0	2785	481	423
0	2791	481.258363767292	424
0	2792	481.258363767292	425
0	2793	482.5	424
0	2796	484	423
0	2802	484.187361884663	424
0	2803	484.187361884663	425
0	2807	485.02861330328	426
0	2808	485.02861330328	427
0	2809	485.5	426
0	2815	486.584438394741	427
0	2816	486.584438394741	428
0	2820	486.820377185442	429
0	2821	486.820377185442	430
0	2822	487	429
0	2828	487.011544963192	430
0	2829	487.011544963192	431
0	2830	488.5	430
0	2836	489.986797230354	431
0	2837	489.986797230354	432
0	2838	490	431
0	2844	490.884499981471	432
0	2845	490.884499981471	433
0	2846	491.5	432
0	2852	492.242915083649	433
0	2853	492.242915083649	434
0	2857	492.359200532587	435
0	2858	492.359200532587	436
0	2859	493	435
0	2865	494.095028399003	436
0	2866	494.095028399003	437
0	2867	494.5	436
0	2873	495.110327906599	437
0	2874	495.110327906599	438
0	2875	496	437
0	2881	496.793610659543	438
0	2882	496.793610659543	439
0	2883	497.5	438
0	2889	498.142166769398	439
0	2890	498.142166769398	440
0	2894	498.762424650336	441
0	2895	498.762424650336	442
0	2896	499	441
0	2902	499.176227625207	442
0	2903	499.176227625207	443
0	2907	500.479698651844	444
0	2908	500.479698651844	445
0	2909	500.5	444
0	2912	502	443
0	2918	502.742560063012	444
0	2919	502.742560063012	445
0	2920	503.5	444
0	2926	504.250771709004	445
0	2927	504.250771709004	446
0	2928	505	445
0	2931	506.5	444
0	2937	506.688823867196	445
0	2938	506.688823867196	446
0	2939	508	445
0	2945	508.227011210824	446
0	2946	508.227011210824	447
0	2950	509.002299854526	448
0	2951	509.002299854526	449
0	2955	509.327092230168	450
0	2956	509.327092230168	451
0	2957	509.5	450
0	2960	511	449
0	2963	512.5	448
0	2969	512.506138580181	449
0	2970	512.506138580181	450
0	2974	512.731456134882	451
0	2975	512.731456134882	452
0	2979	512.824922976338	453
0	2980	512.824922976338	454
0	2981	514	453
0	2987	514.387805394011	454
0	2988	514.387805394011	455
0	2989	515.5	454
0	2995	515.778227571781	455
0	2996	515.778227571781	456
0	3000	516.262993894101	457
0	3001	516.262993894101	458
0	3002	517	457
0	3008	517.820679374025	458
0	3009	517.820679374025	459
0	3010	518.5	458
0	3013	520	457
0	3019	520.97639471944	458
0	3020	520.97639471944	459
0	3021	521.5	458
0	3027	522.656734364915	459
0	3028	522.656734364915	460
0	3029	523	459
0	3035	523.486526960841	460
0	3036	523.486526960841	461
0	3037	524.5	460
0	3040	526	459
0	3043	527.5	458
0	3049	528.585288033669	459
0	3050	528.585288033669	460
0	3051	529	459
0	3054	530.5	458
0	3060	530.872977544517	459
0	3061	530.872977544517	460
0	3062	532	459
0	3068	532.341852453592	460
0	3069	532.341852453592	461
0	3073	532.674140316382	462
0	3074	532.674140316382	463
0	3078	533.391868510723	464
0	3079	533.391868510723	465
0	3083	533.425938369973	466
0	3084	533.425938369973	467
0	3085	533.5	466
0	3091	534.846913301769	467
0	3092	534.846913301769	468
0	3093	535	467
0	3099	536.125426520907	468
0	3100	536.125426520907	469
0	3104	536.398420850264	470
0	3105	536.398420850264	471
0	3106	536.5	470
0	3109	538	469
0	3115	539.401930604002	470
0	3116	539.401930604002	471
0	3117	539.5	470
0	3120	541	469
0	3123	542.5	468
0	3129	543.03480645477	469
0	3130	543.03480645477	470
0	3134	543.365101592175	471
0	3135	543.365101592175	472
0	3139	543.573074836552	473
0	3140	543.573074836552	474
0	3141	544	473
0	3147	544.240650419869	474
0	3148	544.240650419869	475
0	3152	544.862406890482	476
0	3153	544.862406890482	477
0	3154	545.5	476
0	3160	545.511165912538	477
0	3161	545.511165912538	478
0	3165	545.959481857232	479
0	3166	545.959481857232	480
0	3167	547	479
0	3173	547.275349345927	480
0	3174	547.275349345927	481
0	3175	548.5	480
0	3178	550	479
0	3184	550.526847214084	480
0	3185	550.526847214084	481
0	3189	551.074566736381	482
0	3190	551.074566736381	483
0	3191	551.5	482
0	3197	551.74361924724	483
0	3198	551.74361924724	484
0	3199	553	483
0	3205	553.195188183439	484
0	3206	553.195188183439	485
0	3207	554.5	484
0	3213	554.573309554757	485
0	3214	554.573309554757	486
0	3218	555.292664324027	487
0	3219	555.292664324027	488