version 3
run k_MM1_rand-11-20221127-16:03:21-5740
attr configname k_MM1_rand
attr datetime 20221127-16:03:21
attr datetimef 20221127-160321
attr experiment k_MM1_rand
attr inifile omnetpp.ini
attr iterationvars "$time=1.5, $num=1, $0=33434, $1=56673, $2=23567"
attr iterationvarsd time=1.5/num=1/33434/56673/23567
attr iterationvarsf time=1.5,num=1,33434,56673,23567-
attr measurement "$time=1.5, $num=1, $0=33434, $1=56673, $2=23567"
attr network randkMM1
attr processid 5740
attr repetition 3
attr replication #3
attr resultdir results
attr runnumber 11
attr seedset 11
itervar num 1
itervar time 1.5
config description "MM1 module k-times random"
config network randkMM1
config **.source.interArrivalTime "truncnormal(0.5s, 1.5s)"
config **.serviceTime 1.5s
config **.c 1
config **.capacity 10000
config record-eventlog false
config **.scalar-recording true
config **.vector-recording true
config repeat 4
config seed-1-mt 33434
config seed-2-mt 56673
config seed-3-mt 23567
config output-vector-file k_MM1_rand-1-1.5-results/3.vec
config output-scalar-file k_MM1_rand-1-1.5-results/3.sca

vector 0 randkMM1.mm1[0] queueLength:vector ETV
attr interpolationmode none
attr recordingmode vector
attr title "queue length"
vector 1 randkMM1.mm1[0] util:vector ETV
attr interpolationmode none
attr recordingmode vector
attr title resources
0	5	10	1
0	9	11.360007490414	2
0	10	11.360007490414	3
0	11	11.5	2
0	17	11.708120514551	3
0	18	11.708120514551	4
0	22	12.783650301255	5
0	23	12.783650301255	6
0	24	13	5
0	27	14.5	4
0	33	15.439771901575	5
0	34	15.439771901575	6
0	35	16	5
0	41	17.176222687635	6
0	42	17.176222687635	7
0	43	17.5	6
0	49	17.939067119145	7
0	50	17.939067119145	8
0	54	18.630407296457	9
0	55	18.630407296457	10
0	56	19	9
0	62	19.929094623726	10
0	63	19.929094623726	11
0	64	20.5	10
0	67	22	9
0	73	23.415265929198	10
0	74	23.415265929198	11
0	75	23.5	10
0	78	25	9
0	84	26.166295864818	10
0	85	26.166295864818	11
0	86	26.5	10
0	92	27.366977791093	11
0	93	27.366977791093	12
0	97	27.792534977996	13
0	98	27.792534977996	14
0	99	28	13
0	105	28.592332564713	14
0	106	28.592332564713	15
0	107	29.5	14
0	113	29.837802247412	15
0	114	29.837802247412	16
0	118	30.567610459852	17
0	119	30.567610459852	18
0	120	31	17
0	126	31.936096687114	18
0	127	31.936096687114	19
0	128	32.5	18
0	131	34	17
0	137	34.663227016348	18
0	138	34.663227016348	19
0	139	35.5	18
0	145	35.673240784848	19
0	146	35.673240784848	20
0	150	36.54778411854	21
0	151	36.54778411854	22
0	152	37	21
0	158	37.52706567361	22
0	159	37.52706567361	23
0	163	38.379675333981	24
0	164	38.379675333981	25
0	165	38.5	24
0	171	39.247803446332	25
0	172	39.247803446332	26
0	176	39.853288288234	27
0	177	39.853288288234	28
0	178	40	27
0	181	41.5	26
0	187	42.00039103107	27
0	188	42.00039103107	28
0	189	43	27
0	195	44.410058917034	28
0	196	44.410058917034	29
0	197	44.5	28
0	200	46	27
0	206	46.757486231925	28
0	207	46.757486231925	29
0	208	47.5	28
0	214	47.781913272605	29
0	215	47.781913272605	30
0	219	48.755785677486	31
0	220	48.755785677486	32
0	221	49	31
0	224	50.5	30
0	230	50.536286308278	31
0	231	50.536286308278	32
0	235	51.608958376628	33
0	236	51.608958376628	34
0	237	52	33
0	243	53.211597004358	34
0	244	53.211597004358	35
0	245	53.5	34
0	248	55	33
0	251	56.5	32
0	257	56.960256576737	33
0	258	56.960256576737	34
0	259	58	33
0	265	58.319235155038	34
0	266	58.319235155038	35
0	267	59.5	34
0	273	60.790283816642	35
0	274	60.790283816642	36
0	275	61	35
0	281	61.235893066655	36
0	282	61.235893066655	37
0	286	61.660113320225	38
0	287	61.660113320225	39
0	288	62.5	38
0	294	63.749521620062	39
0	295	63.749521620062	40
0	296	64	39
0	302	64.789758059185	40
0	303	64.789758059185	41
0	307	65.158843455134	42
0	308	65.158843455134	43
0	309	65.5	42
0	315	66.283503641135	43
0	316	66.283503641135	44
0	317	67	43
0	323	67.061368383922	44
0	324	67.061368383922	45
0	325	68.5	44
0	331	69.783612814925	45
0	332	69.783612814925	46
0	333	70	45
0	339	70.004658761198	46
0	340	70.004658761198	47
0	341	71.5	46
0	347	71.982117560805	47
0	348	71.982117560805	48
0	349	73	47
0	352	74.5	46
0	358	74.885291096559	47
0	359	74.885291096559	48
0	360	76	47
0	363	77.5	46
0	369	78.036372455619	47
0	370	78.036372455619	48
0	374	78.831833343437	49
0	375	78.831833343437	50
0	376	79	49
0	382	79.041188191122	50
0	383	79.041188191122	51
0	387	79.214857336844	52
0	388	79.214857336844	53
0	389	80.5	52
0	395	80.828596549108	53
0	396	80.828596549108	54
0	397	82	53
0	403	83.363846371795	54
0	404	83.363846371795	55
0	405	83.5	54
0	408	85	53
0	414	85.074246509572	54
0	415	85.074246509572	55
0	419	85.15448809724	56
0	420	85.15448809724	57
0	424	86.109630067885	58
0	425	86.109630067885	59
0	426	86.5	58
0	432	86.799254716064	59
0	433	86.799254716064	60
0	434	88	59
0	440	88.110041173188	60
0	441	88.110041173188	61
0	445	88.449605880139	62
0	446	88.449605880139	63
0	447	89.5	62
0	450	91	61
0	456	91.363270030668	62
0	457	91.363270030668	63
0	458	92.5	62
0	464	93.836291995371	63
0	465	93.836291995371	64
0	466	94	63
0	472	94.230671887407	64
0	473	94.230671887407	65
0	477	95.055850286638	66
0	478	95.055850286638	67
0	479	95.5	66
0	485	96.872258050349	67
0	486	96.872258050349	68
0	487	97	67
0	493	98.399653379528	68
0	494	98.399653379528	69
0	495	98.5	68
0	501	99.391559264685	69
0	502	99.391559264685	70
0	503	100	69
0	509	101.296986514842	70
0	510	101.296986514842	71
0	514	101.325704674233	72
0	515	101.325704674233	73
0	516	101.5	72
0	522	101.779218047001	73
0	523	101.779218047001	74
0	527	102.115576574496	75
0	528	102.115576574496	76
0	529	103	75
0	532	104.5	74
0	538	105.092728694225	75
0	539	105.092728694225	76
0	540	106	75
0	546	106.501904478845	76
0	547	106.501904478845	77
0	548	107.5	76
0	554	107.574078888632	77
0	555	107.574078888632	78
0	559	108.414726483327	79
0	560	108.414726483327	80
0	561	109	79
0	567	109.239596572956	80
0	568	109.239596572956	81
0	569	110.5	80
0	575	110.593045612508	81
0	576	110.593045612508	82
0	577	112	81
0	583	113.204787221865	82
0	584	113.204787221865	83
0	588	113.30143679674	84
0	589	113.30143679674	85
0	590	113.5	84
0	593	115	83
0	599	115.751017631777	84
0	600	115.751017631777	85
0	604	116.288242840836	86
0	605	116.288242840836	87
0	606	116.5	86
0	612	117.429688218291	87
0	613	117.429688218291	88
0	614	118	87
0	620	119.330257027773	88
0	621	119.330257027773	89
0	622	119.5	88
0	625	121	87
0	631	121.393419383185	88
0	632	121.393419383185	89
0	633	122.5	88
0	636	124	87
0	642	124.144194707923	88
0	643	124.144194707923	89
0	644	125.5	88
0	650	125.598892056718	89
0	651	125.598892056718	90
0	652	127	89
0	658	127.095695733165	90
0	659	127.095695733165	91
0	663	128.180312214154	92
0	664	128.180312214154	93
0	665	128.5	92
0	671	128.541544305492	93
0	672	128.541544305492	94
0	673	130	93
0	676	131.5	92
0	682	132.004444891273	93
0	683	132.004444891273	94
0	684	133	93
0	690	133.25214326762	94
0	691	133.25214326762	95
0	695	133.692412960208	96
0	696	133.692412960208	97
0	700	134.188353868088	98
0	701	134.188353868088	99
0	702	134.5	98
0	708	135.121001032846	99
0	709	135.121001032846	100
0	710	136	99
0	713	137.5	98
0	719	137.507979269504	99
0	720	137.507979269504	100
0	721	139	99
0	727	139.577143616495	100
0	728	139.577143616495	101
0	729	140.5	100
0	735	141.020123237121	101
0	736	141.020123237121	102
0	737	142	101
0	743	143.341560339291	102
0	744	143.341560339291	103
0	745	143.5	102
0	751	143.762402596749	103
0	752	143.762402596749	104
0	756	144.12850329441	105
0	757	144.12850329441	106
0	758	145	105
0	764	145.363542870916	106
0	765	145.363542870916	107
0	766	146.5	106
0	769	148	105
0	772	149.5	104
0	778	149.51697380283	105
0	779	149.51697380283	106
0	780	151	105
0	786	151.295904121068	106
0	787	151.295904121068	107
0	791	151.720018002465	108
0	792	151.720018002465	109
0	793	152.5	108
0	796	154	107
0	802	154.079170857295	108
0	803	154.079170857295	109
0	807	154.3394134146	110
0	808	154.3394134146	111
0	812	154.823087891969	112
0	813	154.823087891969	113
0	817	154.89376086537	114
0	818	154.89376086537	115
0	819	155.5	114
0	825	155.897150401679	115
0	826	155.897150401679	116
0	827	157	115
0	830	158.5	114
0	836	159.244137115249	115
0	837	159.244137115249	116
0	838	160	115
0	844	160.872165780078	116
0	845	160.872165780078	117
0	849	161.476119378024	118
0	850	161.476119378024	119
0	851	161.5	118
0	854	163	117
0	857	164.5	116
0	860	166	115
0	866	166.128580075174	116
0	867	166.128580075174	117
0	871	167.095653408765	118
0	872	167.095653408765	119
0	873	167.5	118
0	879	168.87568813741	119
0	880	168.87568813741	120
0	881	169	119
0	887	170.359234846038	120
0	888	170.359234846038	121
0	889	170.5	120
0	895	170.995026168968	121
0	896	170.995026168968	122
0	900	171.50819200067	123
0	901	171.50819200067	124
0	905	171.988337181775	125
0	906	171.988337181775	126
0	907	172	125
0	910	173.5	124
0	916	173.860266225034	125
0	917	173.860266225034	126
0	918	175	125
0	924	175.175720872412	126
0	925	175.175720872412	127
0	929	175.226868261753	128
0	930	175.226868261753	129
0	934	175.586027869296	130
0	935	175.586027869296	131
0	939	176.238908296976	132
0	940	176.238908296976	133
0	944	176.261659910604	134
0	945	176.261659910604	135
0	946	176.5	134
0	952	177.636060168192	135
0	953	177.636060168192	136
0	954	178	135
0	960	179.232695896777	136
0	961	179.232695896777	137
0	962	179.5	136
0	968	180.294120937414	137
0	969	180.294120937414	138
0	970	181	137
0	973	182.5	136
0	979	182.764314749426	137
0	980	182.764314749426	138
0	984	183.995747195662	139
0	985	183.995747195662	140
0	986	184	139
0	989	185.5	138
0	995	186.833332706989	139
0	996	186.833332706989	140
0	1000	186.839751913321	141
0	1001	186.839751913321	142
0	1002	187	141
0	1008	187.269539586544	142
0	1009	187.269539586544	143
0	1013	187.409076301292	144
0	1014	187.409076301292	145
0	1015	188.5	144
0	1021	188.974401595655	145
0	1022	188.974401595655	146
0	1023	190	145
0	1026	191.5	144
0	1032	191.581387723995	145
0	1033	191.581387723995	146
0	1034	193	145
0	1037	194.5	144
0	1043	194.60209747565	145
0	1044	194.60209747565	146
0	1048	195.438198436716	147
0	1049	195.438198436716	148
0	1050	196	147
0	1056	196.94003716448	148
0	1057	196.94003716448	149
0	1058	197.5	148
0	1061	199	147
0	1067	199.9281944963	148
0	1068	199.9281944963	149
0	1072	200.383947152474	150
0	1073	200.383947152474	151
0	1074	200.5	150
0	1077	202	149
0	1083	202.721283602604	150
0	1084	202.721283602604	151
0	1085	203.5	150
0	1091	203.700125707374	151
0	1092	203.700125707374	152
0	1093	205	151
0	1096	206.5	150
0	1102	206.817133228217	151
0	1103	206.817133228217	152
0	1107	207.247521030769	153
0	1108	207.247521030769	154
0	1112	207.876748929781	155
0	1113	207.876748929781	156
0	1114	208	155
0	1120	209.321263354056	156
0	1121	209.321263354056	157
0	1122	209.5	156
0	1125	211	155
0	1131	211.504400875822	156
0	1132	211.504400875822	157
0	1136	212.250354773267	158
0	1137	212.250354773267	159
0	1138	212.5	158
0	1144	213.525553362214	159
0	1145	213.525553362214	160
0	1146	214	159
0	1152	215.093657960733	160
0	1153	215.093657960733	161
0	1154	215.5	160
0	1160	215.817653280329	161
0	1161	215.817653280329	162
0	1165	216.158847056208	163
0	1166	216.158847056208	164
0	1170	216.163354639307	165
0	1171	216.163354639307	166
0	1175	216.250416567308	167
0	1176	216.250416567308	168
0	1180	216.777493471705	169
0	1181	216.777493471705	170
0	1185	216.959096954573	171
0	1186	216.959096954573	172
0	1187	217	171
0	1190	218.5	170
0	1196	218.989913213087	171
0	1197	218.989913213087	172
0	1198	220	171
0	1204	220.833313198871	172
0	1205	220.833313198871	173
0	1209	220.952021009979	174
0	1210	220.952021009979	175
0	1211	221.5	174
0	1217	222.27003656761	175
0	1218	222.27003656761	176
0	1219	223	175
0	1225	223.158415983111	176
0	1226	223.158415983111	177
0	1227	224.5	176
0	1233	225.719227798528	177
0	1234	225.719227798528	178
0	1235	226	177
0	1241	227.176107426259	178
0	1242	227.176107426259	179
0	1243	227.5	178
0	1249	228.338926955641	179
0	1250	228.338926955641	180
0	1251	229	179
0	1257	229.247229043554	180
0	1258	229.247229043554	181
0	1259	230.5	180
0	1265	231.044591546496	181
0	1266	231.044591546496	182
0	1270	231.255950212017	183
0	1271	231.255950212017	184
0	1272	232	183
0	1275	233.5	182
0	1281	233.962660103391	183
0	1282	233.962660103391	184
0	1283	235	183
0	1286	236.5	182
0	1292	236.572267607905	183
0	1293	236.572267607905	184
0	1294	238	183
0	1300	238.358698127886	184
0	1301	238.358698127886	185
0	1302	239.5	184
0	1308	239.595343019609	185
0	1309	239.595343019609	186
0	1310	241	185
0	1316	241.247644013809	186
0	1317	241.247644013809	187
0	1321	242.41218975402	188
0	1322	242.41218975402	189
0	1323	242.5	188
0	1326	244	187
0	1329	245.5	186
0	1335	245.758373383708	187
0	1336	245.758373383708	188
0	1340	246.53818823299	189
0	1341	246.53818823299	190
0	1342	247	189
0	1348	248.401250607566	190
0	1349	248.401250607566	191
0	1350	248.5	190
0	1356	249.597831196064	191
0	1357	249.597831196064	192
0	1358	250	191
0	1364	251.172388201603	192
0	1365	251.172388201603	193
0	1366	251.5	192
0	1369	253	191
0	1375	253.073199726572	192
0	1376	253.073199726572	193
0	1377	254.5	192
0	1383	255.019443352571	193
0	1384	255.019443352571	194
0	1385	256	193
0	1388	257.5	192
0	1394	258.637904877705	193
0	1395	258.637904877705	194
0	1396	259	193
0	1399	260.5	192
0	1402	262	191
0	1408	262.213812554847	192
0	1409	262.213812554847	193
0	1410	263.5	192
0	1416	263.581084898215	193
0	1417	263.581084898215	194
0	1418	265	193
0	1424	265.674811504246	194
0	1425	265.674811504246	195
0	1426	266.5	194
0	1432	267.441627678175	195
0	1433	267.441627678175	196
0	1434	268	195
0	1440	268.912236481727	196
0	1441	268.912236481727	197
0	1442	269.5	196
0	1448	269.932419509159	197
0	1449	269.932419509159	198
0	1450	271	197
0	1456	271.21623696622	198
0	1457	271.21623696622	199
0	1461	271.451687151311	200
0	1462	271.451687151311	201
0	1466	271.610298602903	202
0	1467	271.610298602903	203
0	1471	271.614574842026	204
0	1472	271.614574842026	205
0	1476	271.773844331051	206
0	1477	271.773844331051	207
0	1478	272.5	206
0	1484	272.626480568432	207
0	1485	272.626480568432	208
0	1489	273.308087760678	209
0	1490	273.308087760678	210
0	1494	273.982723778851	211
0	1495	273.982723778851	212
0	1496	274	211
0	1499	275.5	210
0	1505	276.613808480226	211
0	1506	276.613808480226	212
0	1507	277	211
0	1513	277.048106961917	212
0	1514	277.048106961917	213
0	1518	277.221796131032	214
0	1519	277.221796131032	215
0	1523	277.67601310095	216
0	1524	277.67601310095	217
0	1525	278.5	216
0	1531	278.874780411926	217
0	1532	278.874780411926	218
0	1536	279.269434110436	219
0	1537	279.269434110436	220
0	1538	280	219
0	1544	280.758061037189	220
0	1545	280.758061037189	221
0	1546	281.5	220
0	1552	281.849599163579	221
0	1553	281.849599163579	222
0	1557	282.362156133895	223
0	1558	282.362156133895	224
0	1559	283	223
0	1565	284.490017607987	224
0	1566	284.490017607987	225
0	1567	284.5	224
0	1573	284.948708704651	225
0	1574	284.948708704651	226
0	1578	285.340353376004	227
0	1579	285.340353376004	228
0	1583	285.694025931556	229
0	1584	285.694025931556	230
0	1585	286	229
0	1591	287.409471511001	230
0	1592	287.409471511001	231
0	1593	287.5	230
0	1596	289	229
0	1602	289.659346889943	230
0	1603	289.659346889943	231
0	1607	289.951329977917	232
0	1608	289.951329977917	233
0	1609	290.5	232
0	1615	290.754777053158	233
0	1616	290.754777053158	234
0	1617	292	233
0	1623	293.27594849114	234
0	1624	293.27594849114	235
0	1625	293.5	234
0	1628	295	233
0	1634	295.828715743498	234
0	1635	295.828715743498	235
0	1636	296.5	234
0	1642	297.571257754653	235
0	1643	297.571257754653	236
0	1647	297.853129630659	237
0	1648	297.853129630659	238
0	1649	298	237
0	1652	299.5	236
0	1658	299.713957222094	237
0	1659	299.713957222094	238
0	1660	301	237
0	1666	302.047236470453	238
0	1667	302.047236470453	239
0	1668	302.5	238
0	1674	303.776071242948	239
0	1675	303.776071242948	240
0	1676	304	239
0	1682	304.322962318891	240
0	1683	304.322962318891	241
0	1684	305.5	240
0	1690	305.649137163471	241
0	1691	305.649137163471	242
0	1695	306.434709318299	243
0	1696	306.434709318299	244
0	1697	307	243
0	1703	307.932535517464	244
0	1704	307.932535517464	245
0	1705	308.5	244
0	1711	309.398661189351	245
0	1712	309.398661189351	246
0	1713	310	245
0	1719	310.487044341643	246
0	1720	310.487044341643	247
0	1721	311.5	246
0	1724	313	245
0	1730	313.928971772736	246
0	1731	313.928971772736	247
0	1735	313.994317507024	248
0	1736	313.994317507024	249
0	1737	314.5	248
0	1743	315.475808637376	249
0	1744	315.475808637376	250
0	1745	316	249
0	1751	317.004795706185	250
0	1752	317.004795706185	251
0	1753	317.5	250
0	1759	318.06022016728	251
0	1760	318.06022016728	252
0	1761	319	251
0	1767	320.317448783441	252
0	1768	320.317448783441	253
0	1769	320.5	252
0	1775	321.543261762853	253
0	1776	321.543261762853	254
0	1777	322	253
0	1783	322.663174364009	254
0	1784	322.663174364009	255
0	1785	323.5	254
0	1791	323.742811002152	255
0	1792	323.742811002152	256
0	1793	325	255
0	1799	325.513216322013	256
0	1800	325.513216322013	257
0	1801	326.5	256
0	1804	328	255
0	1810	329.04069242087	256
0	1811	329.04069242087	257
0	1815	329.324987024298	258
0	1816	329.324987024298	259
0	1817	329.5	258
0	1823	329.944405759776	259
0	1824	329.944405759776	260
0	1825	331	259
0	1831	331.301496470831	260
0	1832	331.301496470831	261
0	1833	332.5	260
0	1839	333.673889695601	261
0	1840	333.673889695601	262
0	1841	334	261
0	1847	334.822925955354	262
0	1848	334.822925955354	263
0	1849	335.5	262
0	1855	336.922081238895	263
0	1856	336.922081238895	264
0	1857	337	263
0	1863	338.403535383839	264
0	1864	338.403535383839	265
0	1865	338.5	264
0	1871	339.912730306544	265
0	1872	339.912730306544	266
0	1873	340	265
0	1879	340.899712117463	266
0	1880	340.899712117463	267
0	1884	341.143000371221	268
0	1885	341.143000371221	269
0	1886	341.5	268
0	1892	341.897120113389	269
0	1893	341.897120113389	270
0	1894	343	269
0	1900	344.250842830159	270
0	1901	344.250842830159	271
0	1902	344.5	270
0	1905	346	269
0	1908	347.5	268
0	1914	348.535145177524	269
0	1915	348.535145177524	270
0	1916	349	269
0	1922	349.177494719948	270
0	1923	349.177494719948	271
0	1927	349.335355044016	272
0	1928	349.335355044016	273
0	1929	350.5	272
0	1932	352	271
0	1935	353.5	270
0	1941	353.716399952947	271
0	1942	353.716399952947	272
0	1943	355	271
0	1946	356.5	270
0	1949	358	269
0	1955	358.363886323731	270
0	1956	358.363886323731	271
0	1960	359.48785444914	272
0	1961	359.48785444914	273
0	1962	359.5	272
0	1968	360.772149068444	273
0	1969	360.772149068444	274
0	1973	360.87047653438	275
0	1974	360.87047653438	276
0	1975	361	275
0	1978	362.5	274
0	1981	364	273
0	1987	364.310271553883	274
0	1988	364.310271553883	275
0	1989	365.5	274
0	1995	365.930484332573	275
0	1996	365.930484332573	276
0	1997	367	275
0	2003	367.16499068912	276
0	2004	367.16499068912	277
0	2005	368.5	276
0	2008	370	275
0	2014	370.635742022716	276
0	2015	370.635742022716	277
0	2019	371.479670775956	278
0	2020	371.479670775956	279
0	2021	371.5	278
0	2027	371.912787518949	279
0	2028	371.912787518949	280
0	2032	372.15707802461	281
0	2033	372.15707802461	282
0	2037	372.54103238749	283
0	2038	372.54103238749	284
0	2039	373	283
0	2042	374.5	282
0	2045	376	281
0	2051	376.432702198857	282
0	2052	376.432702198857	283
0	2053	377.5	282
0	2059	377.736104505518	283
0	2060	377.736104505518	284
0	2064	378.677092109149	285
0	2065	378.677092109149	286
0	2066	379	285
0	2069	380.5	284
0	2075	381.194128997663	285
0	2076	381.194128997663	286
0	2080	381.388907245801	287
0	2081	381.388907245801	288
0	2082	382	287
0	2088	382.590239459597	288
0	2089	382.590239459597	289
0	2093	383.287108128331	290
0	2094	383.287108128331	291
0	2095	383.5	290
0	2098	385	289
0	2104	385.111758731557	290
0	2105	385.111758731557	291
0	2109	386.255621966002	292
0	2110	386.255621966002	293
0	2111	386.5	292
0	2117	387.832773778589	293
0	2118	387.832773778589	294
0	2119	388	293
0	2125	388.333188841506	294
0	2126	388.333188841506	295
0	2130	389.339104530812	296
0	2131	389.339104530812	297
0	2132	389.5	296
0	2138	389.814807667205	297
0	2139	389.814807667205	298
0	2143	390.256255663243	299
0	2144	390.256255663243	300
0	2148	390.359877219175	301
0	2149	390.359877219175	302
0	2150	391	301
0	2153	392.5	300
0	2159	392.890260623632	301
0	2160	392.890260623632	302
0	2164	393.594721705817	303
0	2165	393.594721705817	304
0	2166	394	303
0	2172	394.221116510788	304
0	2173	394.221116510788	305
0	2177	394.560352148899	306
0	2178	394.560352148899	307
0	2182	395.373097340658	308
0	2183	395.373097340658	309
0	2184	395.5	308
0	2190	396.014984670677	309
0	2191	396.014984670677	310
0	2195	396.607753390306	311
0	2196	396.607753390306	312
0	2197	397	311
0	2203	398.377232660447	312
0	2204	398.377232660447	313
0	2205	398.5	312
0	2208	400	311
0	2214	400.333802921428	312
0	2215	400.333802921428	313
0	2219	400.892971796534	314
0	2220	400.892971796534	315
0	2221	401.5	314
0	2227	401.980449044883	315
0	2228	401.980449044883	316
0	2229	403	315
0	2235	404.269850526911	316
0	2236	404.269850526911	317
0	2240	404.365012612303	318
0	2241	404.365012612303	319
0	2242	404.5	318
0	2248	404.661254232678	319
0	2249	404.661254232678	320
0	2250	406	319
0	2256	406.376694281852	320
0	2257	406.376694281852	321
0	2261	406.951666468747	322
0	2262	406.951666468747	323
0	2263	407.5	322
0	2266	409	321
0	2272	409.991097616917	322
0	2273	409.991097616917	323
0	2274	410.5	322
0	2277	412	321
0	2283	412.713413940396	322
0	2284	412.713413940396	323
0	2288	412.717961466661	324
0	2289	412.717961466661	325
0	2290	413.5	324
0	2293	415	323
0	2299	415.445727193006	324
0	2300	415.445727193006	325
0	2301	416.5	324
0	2304	418	323
0	2310	418.02804329613	324
0	2311	418.02804329613	325
0	2315	418.532002206819	326
0	2316	418.532002206819	327
0	2320	419.255052030217	328
0	2321	419.255052030217	329
0	2322	419.5	328
0	2328	420.964387840948	329
0	2329	420.964387840948	330
0	2330	421	329
0	2333	422.5	328
0	2339	422.595346669641	329
0	2340	422.595346669641	330
0	2341	424	329
0	2347	424.722705344521	330
0	2348	424.722705344521	331
0	2352	425.482888599859	332
0	2353	425.482888599859	333
0	2354	425.5	332
0	2360	426.801621828366	333
0	2361	426.801621828366	334
0	2362	427	333
0	2368	427.973379601826	334
0	2369	427.973379601826	335
0	2373	428.335778228085	336
0	2374	428.335778228085	337
0	2375	428.5	336
0	2378	430	335
0	2384	430.467402305306	336
0	2385	430.467402305306	337
0	2389	431.29809430052	338
0	2390	431.29809430052	339
0	2391	431.5	338
0	2397	431.941755969234	339
0	2398	431.941755969234	340
0	2399	433	339
0	2405	434.404776714461	340
0	2406	434.404776714461	341
0	2410	434.438732670349	342
0	2411	434.438732670349	343
0	2412	434.5	342
0	2418	435.958524408109	343
0	2419	435.958524408109	344
0	2420	436	343
0	2426	437.49206546289	344
0	2427	437.49206546289	345
0	2428	437.5	344
0	2434	438.348141130659	345
0	2435	438.348141130659	346
0	2439	438.556203420543	347
0	2440	438.556203420543	348
0	2441	439	347
0	2444	440.5	346
0	2450	440.682899547476	347
0	2451	440.682899547476	348
0	2452	442	347
0	2455	443.5	346
0	2461	443.829821954805	347
0	2462	443.829821954805	348
0	2466	444.770051063774	349
0	2467	444.770051063774	350
0	2468	445	349
0	2474	445.659908516588	350
0	2475	445.659908516588	351
0	2479	446.283497126905	352
0	2480	446.283497126905	353
0	2481	446.5	352
0	2487	447.102717825218	353
0	2488	447.102717825218	354
0	2492	447.582817630635	355
0	2493	447.582817630635	356
0	2494	448	355
0	2497	449.5	354
0	2503	450.260509196864	355
0	2504	450.260509196864	356
0	2505	451	355
0	2511	451.516220637315	356
0	2512	451.516220637315	357
0	2513	452.5	356
0	2519	453.18988134766	357
0	2520	453.18988134766	358
0	2521	454	357
0	2524	455.5	356
0	2530	456.307819271346	357
0	2531	456.307819271346	358
0	2532	457	357
0	2538	457.075516080419	358
0	2539	457.075516080419	359
0	2540	458.5	358
0	2546	459.286287991419	359
0	2547	459.286287991419	360
0	2548	460	359
0	2554	460.480365215788	360
0	2555	460.480365215788	361
0	2559	461.072537628373	362
0	2560	461.072537628373	363
0	2561	461.5	362
0	2564	463	361
0	2570	463.299625658091	362
0	2571	463.299625658091	363
0	2575	464.238076674827	364
0	2576	464.238076674827	365
0	2577	464.5	364
0	2583	465.773465952392	365
0	2584	465.773465952392	366
0	2585	466	365
0	2591	466.059849749212	366
0	2592	466.059849749212	367
0	2596	466.567591534439	368
0	2597	466.567591534439	369
0	2598	467.5	368
0	2604	467.754664424388	369
0	2605	467.754664424388	370
0	2606	469	369
0	2612	470.333404824888	370
0	2613	470.333404824888	371
0	2614	470.5	370
0	2620	470.775296607282	371
0	2621	470.775296607282	372
0	2625	471.389718953838	373
0	2626	471.389718953838	374
0	2630	471.503596290455	375
0	2631	471.503596290455	376
0	2632	472	375
0	2638	473.40181586859	376
0	2639	473.40181586859	377
0	2640	473.5	376
0	2646	474.643684854875	377
0	2647	474.643684854875	378
0	2648	475	377
0	2654	475.173056511853	378
0	2655	475.173056511853	379
0	2656	476.5	378
0	2659	478	377
0	2662	479.5	376
0	2668	479.546662659182	377
0	2669	479.546662659182	378
0	2673	480.898450669587	379
0	2674	480.898450669587	380
0	2678	480.904010596508	381
0	2679	480.904010596508	382
0	2680	481	381
0	2686	482.499633770886	382
0	2687	482.499633770886	383
0	2688	482.5	382
0	2694	483.339609747607	383
0	2695	483.339609747607	384
0	2699	483.641948697262	385
0	2700	483.641948697262	386
0	2704	483.852862291014	387
0	2705	483.852862291014	388
0	2706	484	387
0	2712	485.140644008324	388
0	2713	485.140644008324	389
0	2714	485.5	388
0	2720	486.922583525742	389
0	2721	486.922583525742	390
0	2722	487	389
0	2725	488.5	388
0	2731	489.680403192264	389
0	2732	489.680403192264	390
0	2733	490	389
0	2736	491.5	388
0	2742	492.388441183702	389
0	2743	492.388441183702	390
0	2744	493	389
0	2750	494.370512501401	390
0	2751	494.370512501401	391
0	2752	494.5	390
0	2755	496	389
0	2761	496.310252652382	390
0	2762	496.310252652382	391
0	2763	497.5	390
0	2769	497.53640074043	391
0	2770	497.53640074043	392
0	2771	499	391
0	2777	500.019626339595	392
0	2778	500.019626339595	393
0	2779	500.5	392
0	2785	501.609784703552	393
0	2786	501.609784703552	394
0	2787	502	393
0	2793	502.090232426901	394
0	2794	502.090232426901	395
0	2798	502.963670108734	396
0	2799	502.963670108734	397
0	2800	503.5	396
0	2806	504.412274279982	397
0	2807	504.412274279982	398
0	2808	505	397
0	2814	506.006865323173	398
0	2815	506.006865323173	399
0	2816	506.5	398
0	2819	508	397
0	2825	508.517251691545	398
0	2826	508.517251691545	399
0	2827	509.5	398
0	2833	510.15871257099	399
0	2834	510.15871257099	400
0	2835	511	399
0	2841	511.71489731671	400
0	2842	511.71489731671	401
0	2846	512.36328342077	402
0	2847	512.36328342077	403
0	2848	512.5	402
0	2854	513.28235890541	403
0	2855	513.28235890541	404
0	2856	514	403
0	2862	514.10432832383	404
0	2863	514.10432832383	405
0	2867	515.316388470285	406
0	2868	515.316388470285	407
0	2872	515.337112703747	408
0	2873	515.337112703747	409
0	2874	515.5	408
0	2880	516.46626179607	409
0	2881	516.46626179607	410
0	2882	517	409
0	2888	517.072891926558	410
0	2889	517.072891926558	411
0	2890	518.5	410
0	2893	520	409
0	2899	520.054145918853	410
0	2900	520.054145918853	411
0	2901	521.5	410
0	2907	521.973593872705	411
0	2908	521.973593872705	412
0	2912	522.580618967324	413
0	2913	522.580618967324	414
0	2914	523	413
0	2917	524.5	412
0	2923	524.681714582457	413
0	2924	524.681714582457	414
0	2928	524.866825231194	415
0	2929	524.866825231194	416
0	2930	526	415
0	2933	527.5	414
0	2936	529	413
0	2942	529.11274202205	414
0	2943	529.11274202205	415
0	2947	530.264612949886	416
0	2948	530.264612949886	417
0	2949	530.5	416
0	2952	532	415
0	2958	532.806634428939	416
0	2959	532.806634428939	417
0	2960	533.5	416
0	2966	534.267269814405	417
0	2967	534.267269814405	418
0	2968	535	417
0	2974	536.293902096023	418
0	2975	536.293902096023	419
0	2976	536.5	418
0	2982	537.408419768006	419
0	2983	537.408419768006	420
0	2987	537.504414257385	421
0	2988	537.504414257385	422
0	2992	537.798665545193	423
0	2993	537.798665545193	424
0	2994	538	423
0	3000	539.284510970584	424
0	3001	539.284510970584	425
0	3002	539.5	424
0	3008	539.562608686886	425
0	3009	539.562608686886	426
0	3013	540.793413995985	427
0	3014	540.793413995985	428
0	3015	541	427
0	3021	541.605758538342	428
0	3022	541.605758538342	429
0	3023	542.5	428
0	3029	542.633204218507	429
0	3030	542.633204218507	430
0	3031	544	429
0	3037	544.413171751244	430
0	3038	544.413171751244	431
0	3039	545.5	430
0	3045	546.417872391805	431
0	3046	546.417872391805	432
0	3047	547	431
0	3050	548.5	430
0	3056	549.977824006628	431
0	3057	549.977824006628	432
0	3058	550	431
0	3064	550.321500939107	432
0	3065	550.321500939107	433
0	3066	551.5	432
0	3069	553	431
0	3075	553.530225624023	432
0	3076	553.530225624023	433
0	3080	554.144903940796	434
0	3081	554.144903940796	435
0	3082	554.5	434
0	3088	554.793976315118	435
0	3089	554.793976315118	436
0	3090	556	435
0	3096	556.173811040818	436
0	3097	556.173811040818	437
0	3098	557.5	436
0	3104	557.717816579643	437
0	3105	557.717816579643	438
0	3109	558.310972520818	439
0	3110	558.310972520818	440
0	3111	559	439
0	3117	560.029000671668	440
0	3118	560.029000671668	441
0	3119	560.5	440
0	3125	560.859424389455	441
0	3126	560.859424389455	442
0	3127	562	441
0	3133	562.4240029923	442
0	3134	562.4240029923	443
0	3138	563.078763429011	444
0	3139	563.078763429011	445
0	3140	563.5	444
0	3146	563.628513038778	445
0	3147	563.628513038778	446
0	3151	563.646480103712	447
0	3152	563.646480103712	448
0	3156	563.940831126692	449
0	3157	563.940831126692	450
0	3158	565	449
0	3161	566.5	448
0	3167	567.252209703735	449
0	3168	567.252209703735	450
0	3169	568	449
0	3175	569.44583805824	450
0	3176	569.44583805824	451
0	3177	569.5	450
0	3183	570.094119462373	451
0	3184	570.094119462373	452
0	3185	571	451
0	3191	571.607038626982	452
0	3192	571.607038626982	453
0	3196	572.430584725204	454
0	3197	572.430584725204	455
0	3198	572.5	454
0	3204	573.024349943685	455
0	3205	573.024349943685	456
0	3206	574	455
0	3212	574.08366716268	456
0	3213	574.08366716268	457
0	3217	574.691481866108	458
0	3218	574.691481866108	459
0	3219	575.5	458
0	3222	577	457
0	3228	577.940259340065	458
0	3229	577.940259340065	459
0	3233	578.114265502898	460
0	3234	578.114265502898	461
0	3235	578.5	460
0	3238	580	459
0	3244	581.032822934904	460
0	3245	581.032822934904	461
0	3246	581.5	460