version 3
run MMc-40-20221127-11:38:42-21264
attr configname MMc
attr datetime 20221127-11:38:42
attr datetimef 20221127-113842
attr experiment MMc
attr inifile omnetpp.ini
attr iterationvars "$mean=uniform(0.5s, 1.5s), $dev=0.5*(uniform(0.5s, 1.5s)), $time=2.5, $num=3, $0=53542, $1=75335, $2=34542"
attr iterationvarsd mean=uniform(0.5s,_1.5s)/dev=0.5#2a(uniform(0.5s,_1.5s))/time=2.5/num=3/53542/75335/34542
attr iterationvarsf mean=uniform(0.5s,_1.5s),dev=0.5#2a(uniform(0.5s,_1.5s)),time=2.5,num=3,53542,75335,34542-
attr measurement "$mean=uniform(0.5s, 1.5s), $dev=0.5*(uniform(0.5s, 1.5s)), $time=2.5, $num=3, $0=53542, $1=75335, $2=34542"
attr network MMc
attr processid 21264
attr repetition 0
attr replication #0
attr resultdir results
attr runnumber 40
attr seedset 40
itervar dev "0.5*(uniform(0.5s, 1.5s))"
itervar mean "uniform(0.5s, 1.5s)"
itervar num 3
itervar time 2.5
config description "MMc module"
config network MMc
config MMc.source.interArrivalTime "truncnormal(uniform(0.5s, 1.5s), 0.5*(uniform(0.5s, 1.5s)))"
config MMc.mmc.serviceTime 2.5s
config MMc.mmc.c 3
config MMc.mmc.capacity 10000
config record-eventlog false
config **.scalar-recording true
config **.vector-recording true
config repeat 4
config seed-1-mt 53542
config seed-2-mt 75335
config seed-3-mt 34542
config output-vector-file MMc-3-2.5-results/0.vec
config output-scalar-file MMc-3-2.5-results/0.sca

vector 0 MMc.mmc queueLength:vector ETV
attr interpolationmode none
attr recordingmode vector
attr title "queue length"
vector 1 MMc.mmc util:vector ETV
attr interpolationmode none
attr recordingmode vector
attr title resources
0	0	0	0
0	6	11.054749518112	1
0	7	12.5	0
0	13	12.647109760075	1
0	14	13.554749518112	0
0	17	13.905183429983	1
0	18	13.905183429983	2
0	19	15	1
0	21	15.147109760075	0
0	24	15.331137113575	1
0	25	15.331137113575	2
0	26	16.054749518112	1
0	29	16.149611690698	2
0	30	16.149611690698	3
0	31	17.5	2
0	33	17.647109760075	1
0	36	18.013528156434	2
0	37	18.013528156434	3
0	38	18.554749518112	2
0	41	19.186689139495	3
0	42	19.186689139495	4
0	43	20	3
0	46	20.096987160413	4
0	47	20.096987160413	5
0	48	20.147109760075	4
0	50	21.054749518112	3
0	53	21.219839656095	4
0	54	21.219839656095	5
0	56	21.759668484374	6
0	57	21.759668484374	7
0	59	22.369537498805	8
0	60	22.369537498805	9
0	61	22.5	8
0	63	22.647109760075	7
0	66	23.235492146518	8
0	67	23.235492146518	9
0	68	23.554749518112	8
0	71	24.628756832255	9
0	72	24.628756832255	10
0	73	25	9
0	75	25.147109760075	8
0	77	26.054749518112	7
0	80	26.349223266964	8
0	81	26.349223266964	9
0	83	27.456662256351	10
0	84	27.456662256351	11
0	85	27.5	10
0	87	27.647109760075	9
0	90	28.413403710671	10
0	91	28.413403710671	11
0	92	28.554749518112	10
0	95	29.69193901854	11
0	96	29.69193901854	12
0	97	30	11
0	99	30.147109760075	10
0	101	31.054749518112	9
0	104	31.150518405597	10
0	105	31.150518405597	11
0	107	31.832206786327	12
0	108	31.832206786327	13
0	109	32.5	12
0	111	32.647109760075	11
0	114	32.726207739724	12
0	115	32.726207739724	13
0	116	33.554749518112	12
0	119	34.223538848033	13
0	120	34.223538848033	14
0	122	34.938944891436	15
0	123	34.938944891436	16
0	124	35	15
0	126	35.147109760075	14
0	128	36.054749518112	13
0	131	36.282494441295	14
0	132	36.282494441295	15
0	134	37.352444067813	16
0	135	37.352444067813	17
0	136	37.5	16
0	138	37.647109760075	15
0	141	38.388850409909	16
0	142	38.388850409909	17
0	143	38.554749518112	16
0	146	39.363288460665	17
0	147	39.363288460665	18
0	148	40	17
0	150	40.147109760075	16
0	153	40.542918535098	17
0	154	40.542918535098	18
0	155	41.054749518112	17
0	158	41.377445695623	18
0	159	41.377445695623	19
0	161	41.979195811288	20
0	162	41.979195811288	21
0	163	42.5	20
0	165	42.647109760075	19
0	168	42.989710736699	20
0	169	42.989710736699	21
0	170	43.554749518112	20
0	173	43.579117470926	21
0	174	43.579117470926	22
0	176	44.465067060123	23
0	177	44.465067060123	24
0	178	45	23
0	180	45.147109760075	22
0	183	45.90486796297	23
0	184	45.90486796297	24
0	185	46.054749518112	23
0	188	46.822313257856	24
0	189	46.822313257856	25
0	190	47.5	24
0	193	47.523745556489	25
0	194	47.523745556489	26
0	195	47.647109760075	25
0	197	48.554749518112	24
0	200	48.794844231202	25
0	201	48.794844231202	26
0	202	50	25
0	204	50.147109760075	24
0	207	50.339251873294	25
0	208	50.339251873294	26
0	209	51.054749518112	25
0	212	51.311120894002	26
0	213	51.311120894002	27
0	215	52.342865256672	28
0	216	52.342865256672	29
0	217	52.5	28
0	219	52.647109760075	27
0	222	53.250097294989	28
0	223	53.250097294989	29
0	224	53.554749518112	28
0	227	54.872700884493	29
0	228	54.872700884493	30
0	229	55	29
0	231	55.147109760075	28
0	233	56.054749518112	27
0	236	56.221232654975	28
0	237	56.221232654975	29
0	239	57.355991052208	30
0	240	57.355991052208	31
0	242	57.459854468816	32
0	243	57.459854468816	33
0	244	57.5	32
0	246	57.647109760075	31
0	248	58.554749518112	30
0	251	58.652489744841	31
0	252	58.652489744841	32
0	254	59.941225449328	33
0	255	59.941225449328	34
0	256	60	33
0	258	60.147109760075	32
0	260	61.054749518112	31
0	263	61.162650910455	32
0	264	61.162650910455	33
0	266	62.012874840544	34
0	267	62.012874840544	35
0	269	62.184740861402	36
0	270	62.184740861402	37
0	271	62.5	36
0	273	62.647109760075	35
0	275	63.554749518112	34
0	278	63.677622071724	35
0	279	63.677622071724	36
0	281	64.219268203962	37
0	282	64.219268203962	38
0	283	65	37
0	285	65.147109760075	36
0	288	65.194696987367	37
0	289	65.194696987367	38
0	291	65.684169055378	39
0	292	65.684169055378	40
0	293	66.054749518112	39
0	296	67.302245234522	40
0	297	67.302245234522	41
0	298	67.5	40
0	300	67.647109760075	39
0	303	67.928505698063	40
0	304	67.928505698063	41
0	305	68.554749518112	40
0	307	70	39
0	310	70.086232150103	40
0	311	70.086232150103	41
0	312	70.147109760075	40
0	314	71.054749518112	39
0	317	71.28452691889	40
0	318	71.28452691889	41
0	320	71.675833015239	42
0	321	71.675833015239	43
0	322	72.5	42
0	324	72.647109760075	41
0	327	72.700004791521	42
0	328	72.700004791521	43
0	329	73.554749518112	42
0	332	74.197875425679	43
0	333	74.197875425679	44
0	335	74.639969305083	45
0	336	74.639969305083	46
0	337	75	45
0	340	75.14514242045	46
0	341	75.14514242045	47
0	342	75.147109760075	46
0	344	76.054749518112	45
0	347	76.472142092677	46
0	348	76.472142092677	47
0	349	77.5	46
0	351	77.647109760075	45
0	354	77.661452659191	46
0	355	77.661452659191	47
0	356	78.554749518112	46
0	359	79.128113504613	47
0	360	79.128113504613	48
0	362	79.614058115829	49
0	363	79.614058115829	50
0	364	80	49
0	366	80.147109760075	48
0	369	80.922710662742	49
0	370	80.922710662742	50
0	371	81.054749518112	49
0	374	82.294638288677	50
0	375	82.294638288677	51
0	376	82.5	50
0	378	82.647109760075	49
0	381	83.394249655769	50
0	382	83.394249655769	51
0	383	83.554749518112	50
0	385	85	49
0	387	85.147109760075	48
0	390	85.290737566677	49
0	391	85.290737566677	50
0	392	86.054749518112	49
0	395	86.341562021963	50
0	396	86.341562021963	51
0	398	86.708065467546	52
0	399	86.708065467546	53
0	400	87.5	52
0	402	87.647109760075	51
0	405	88.069927698024	52
0	406	88.069927698024	53
0	408	88.192616219456	54
0	409	88.192616219456	55
0	410	88.554749518112	54
0	413	89.686676332203	55
0	414	89.686676332203	56
0	415	90	55
0	417	90.147109760075	54
0	420	90.470270095903	55
0	421	90.470270095903	56
0	422	91.054749518112	55
0	425	91.527698545419	56
0	426	91.527698545419	57
0	427	92.5	56
0	429	92.647109760075	55
0	432	92.843964652566	56
0	433	92.843964652566	57
0	434	93.554749518112	56
0	437	94.492434755751	57
0	438	94.492434755751	58
0	440	94.660468176411	59
0	441	94.660468176411	60
0	442	95	59
0	445	95.065973359026	60
0	446	95.065973359026	61
0	447	95.147109760075	60
0	449	96.054749518112	59
0	452	96.070376135213	60
0	453	96.070376135213	61
0	455	97.023051930989	62
0	456	97.023051930989	63
0	457	97.5	62
0	459	97.647109760075	61
0	462	97.777792715711	62
0	463	97.777792715711	63
0	465	98.535368990171	64
0	466	98.535368990171	65
0	467	98.554749518112	64
0	470	99.858143865924	65
0	471	99.858143865924	66
0	472	100	65
0	474	100.147109760075	64
0	477	100.28668842533	65
0	478	100.28668842533	66
0	479	101.054749518112	65
0	482	101.058356487024	66
0	483	101.058356487024	67
0	484	102.5	66
0	486	102.647109760075	65
0	489	102.726961424237	66
0	490	102.726961424237	67
0	491	103.554749518112	66
0	494	104.487798698206	67
0	495	104.487798698206	68
0	496	105	67
0	498	105.147109760075	66
0	501	105.815519188539	67
0	502	105.815519188539	68
0	503	106.054749518112	67
0	506	107.024446795488	68
0	507	107.024446795488	69
0	508	107.5	68
0	510	107.647109760075	67
0	513	108.47278608162	68
0	514	108.47278608162	69
0	515	108.554749518112	68
0	518	109.670168361414	69
0	519	109.670168361414	70
0	520	110	69
0	522	110.147109760075	68
0	525	110.868260409896	69
0	526	110.868260409896	70
0	527	111.054749518112	69
0	530	112.05472596575	70
0	531	112.05472596575	71
0	532	112.5	70
0	534	112.647109760075	69
0	537	113.193492855096	70
0	538	113.193492855096	71
0	539	113.554749518112	70
0	542	113.708508765848	71
0	543	113.708508765848	72
0	545	114.661124146788	73
0	546	114.661124146788	74
0	547	115	73
0	549	115.147109760075	72
0	552	115.966018083829	73
0	553	115.966018083829	74
0	554	116.054749518112	73
0	557	116.832243111552	74
0	558	116.832243111552	75
0	559	117.5	74
0	561	117.647109760075	73
0	564	118.046775587705	74
0	565	118.046775587705	75
0	566	118.554749518112	74
0	569	119.147091858073	75
0	570	119.147091858073	76
0	571	120	75
0	573	120.147109760075	74
0	576	120.169011003892	75
0	577	120.169011003892	76
0	579	120.799148242421	77
0	580	120.799148242421	78
0	581	121.054749518112	77
0	584	121.61920801693	78
0	585	121.61920801693	79
0	587	122.206766161714	80
0	588	122.206766161714	81
0	589	122.5	80
0	591	122.647109760075	79
0	593	123.554749518112	78
0	596	123.725855106794	79
0	597	123.725855106794	80
0	599	124.1569266656	81
0	600	124.1569266656	82
0	601	125	81
0	603	125.147109760075	80
0	606	125.603821058955	81
0	607	125.603821058955	82
0	609	125.697707556201	83
0	610	125.697707556201	84
0	611	126.054749518112	83
0	614	126.473674381678	84
0	615	126.473674381678	85
0	616	127.5	84
0	618	127.647109760075	83
0	621	127.82573001389	84
0	622	127.82573001389	85
0	623	128.554749518112	84
0	626	129.033257514873	85
0	627	129.033257514873	86
0	628	130	85
0	630	130.147109760075	84
0	633	130.750161082211	85
0	634	130.750161082211	86
0	635	131.054749518112	85
0	638	131.258124494538	86
0	639	131.258124494538	87
0	641	131.753725838736	88
0	642	131.753725838736	89
0	644	132.151424518554	90
0	645	132.151424518554	91
0	646	132.5	90
0	648	132.647109760075	89
0	651	132.76785799978	90
0	652	132.76785799978	91
0	654	133.189148116662	92
0	655	133.189148116662	93
0	656	133.554749518112	92
0	659	134.145332104431	93
0	660	134.145332104431	94
0	661	135	93
0	663	135.147109760075	92
0	666	135.846138066054	93
0	667	135.846138066054	94
0	668	136.054749518112	93
0	671	136.460017086778	94
0	672	136.460017086778	95
0	674	137.226195662692	96
0	675	137.226195662692	97
0	676	137.5	96
0	678	137.647109760075	95
0	681	137.877379704451	96
0	682	137.877379704451	97
0	683	138.554749518112	96
0	686	139.070369801111	97
0	687	139.070369801111	98
0	689	139.537926281172	99
0	690	139.537926281172	100
0	691	140	99
0	693	140.147109760075	98
0	696	140.157846291157	99
0	697	140.157846291157	100
0	699	140.568696905988	101
0	700	140.568696905988	102
0	701	141.054749518112	101
0	704	141.565230363662	102
0	705	141.565230363662	103
0	706	142.5	102
0	708	142.647109760075	101
0	711	143.034380273458	102
0	712	143.034380273458	103
0	714	143.552161311838	104
0	715	143.552161311838	105
0	716	143.554749518112	104
0	719	144.794988179038	105
0	720	144.794988179038	106
0	721	145	105
0	723	145.147109760075	104
0	726	145.415710825981	105
0	727	145.415710825981	106
0	728	146.054749518112	105
0	731	146.318540624116	106
0	732	146.318540624116	107
0	734	147.064366461438	108
0	735	147.064366461438	109
0	737	147.202014909653	110
0	738	147.202014909653	111
0	739	147.5	110
0	741	147.647109760075	109
0	744	148.10532660426	110
0	745	148.10532660426	111
0	746	148.554749518112	110
0	749	149.037669945049	111
0	750	149.037669945049	112
0	752	149.43876991569	113
0	753	149.43876991569	114
0	755	149.82408683688	115
0	756	149.82408683688	116
0	757	150	115
0	759	150.147109760075	114
0	762	150.931915406277	115
0	763	150.931915406277	116
0	764	151.054749518112	115
0	767	151.319096928857	116
0	768	151.319096928857	117
0	770	152.009467550002	118
0	771	152.009467550002	119
0	772	152.5	118
0	774	152.647109760075	117
0	776	153.554749518112	116
0	779	153.73344781658	117
0	780	153.73344781658	118
0	782	154.705573854077	119
0	783	154.705573854077	120
0	785	154.977695916567	121
0	786	154.977695916567	122
0	787	155	121
0	789	155.147109760075	120
0	792	155.969315602091	121
0	793	155.969315602091	122
0	794	156.054749518112	121
0	797	156.278811440065	122
0	798	156.278811440065	123
0	799	157.5	122
0	802	157.599050906683	123
0	803	157.599050906683	124
0	804	157.647109760075	123
0	806	158.554749518112	122
0	809	158.860364627841	123
0	810	158.860364627841	124
0	812	159.77985972022	125
0	813	159.77985972022	126
0	814	160	125
0	816	160.147109760075	124
0	818	161.054749518112	123
0	821	161.151285153874	124
0	822	161.151285153874	125
0	824	161.844936848443	126
0	825	161.844936848443	127
0	826	162.5	126
0	828	162.647109760075	125
0	831	163.442274485363	126
0	832	163.442274485363	127
0	833	163.554749518112	126
0	836	164.343307654683	127
0	837	164.343307654683	128
0	838	165	127
0	840	165.147109760075	126
0	842	166.054749518112	125
0	845	166.368294032774	126
0	846	166.368294032774	127
0	848	166.745873521935	128
0	849	166.745873521935	129
0	850	167.5	128
0	852	167.647109760075	127
0	855	168.280818230618	128
0	856	168.280818230618	129
0	857	168.554749518112	128
0	860	169.520488085276	129
0	861	169.520488085276	130
0	862	170	129
0	864	170.147109760075	128
0	867	170.35639503316	129
0	868	170.35639503316	130
0	870	171.013091662133	131
0	871	171.013091662133	132
0	872	171.054749518112	131
0	875	171.996749264745	132
0	876	171.996749264745	133
0	877	172.5	132
0	879	172.647109760075	131
0	882	173.455244624192	132
0	883	173.455244624192	133
0	884	173.554749518112	132
0	887	173.593007232986	133
0	888	173.593007232986	134
0	890	174.388821217369	135
0	891	174.388821217369	136
0	893	174.950400189825	137
0	894	174.950400189825	138
0	895	175	137
0	897	175.147109760075	136
0	899	176.054749518112	135
0	902	176.131455088092	136
0	903	176.131455088092	137
0	904	177.5	136
0	907	177.512761938529	137
0	908	177.512761938529	138
0	909	177.647109760075	137
0	912	178.007021211125	138
0	913	178.007021211125	139
0	914	178.554749518112	138
0	917	179.500253000592	139
0	918	179.500253000592	140
0	920	179.848087504754	141
0	921	179.848087504754	142
0	922	180	141
0	924	180.147109760075	140
0	927	180.6047683345	141
0	928	180.6047683345	142
0	929	181.054749518112	141
0	932	181.519825611833	142
0	933	181.519825611833	143
0	935	182.455050954159	144
0	936	182.455050954159	145
0	937	182.5	144
0	939	182.647109760075	143
0	941	183.554749518112	142
0	944	183.778912106037	143
0	945	183.778912106037	144
0	946	185	143
0	948	185.147109760075	142
0	951	185.190790043344	143
0	952	185.190790043344	144
0	953	186.054749518112	143
0	956	186.364337548826	144
0	957	186.364337548826	145
0	959	187.281775156859	146
0	960	187.281775156859	147
0	961	187.5	146
0	963	187.647109760075	145
0	965	188.554749518112	144
0	968	188.98050828103	145
0	969	188.98050828103	146
0	971	189.786805074269	147
0	972	189.786805074269	148
0	973	190	147
0	976	190.017490684444	148
0	977	190.017490684444	149
0	978	190.147109760075	148
0	981	190.938329215496	149
0	982	190.938329215496	150
0	983	191.054749518112	149
0	986	191.473569932545	150
0	987	191.473569932545	151
0	988	192.5	150
0	990	192.647109760075	149
0	993	193.106152418611	150
0	994	193.106152418611	151
0	996	193.496719130193	152
0	997	193.496719130193	153
0	998	193.554749518112	152
0	1001	194.354193418265	153
0	1002	194.354193418265	154
0	1004	194.626148825283	155
0	1005	194.626148825283	156
0	1006	195	155
0	1008	195.147109760075	154
0	1011	195.709735812439	155
0	1012	195.709735812439	156
0	1013	196.054749518112	155
0	1016	196.689553068175	156
0	1017	196.689553068175	157
0	1019	196.887317854749	158
0	1020	196.887317854749	159
0	1021	197.5	158
0	1023	197.647109760075	157
0	1026	198.496465220726	158
0	1027	198.496465220726	159
0	1028	198.554749518112	158
0	1031	199.229920680322	159
0	1032	199.229920680322	160
0	1033	200	159
0	1035	200.147109760075	158
0	1038	200.573088709001	159
0	1039	200.573088709001	160
0	1040	201.054749518112	159
0	1043	201.950152750934	160
0	1044	201.950152750934	161
0	1045	202.5	160
0	1047	202.647109760075	159
0	1050	202.848545009957	160
0	1051	202.848545009957	161
0	1052	203.554749518112	160
0	1055	203.863064743094	161
0	1056	203.863064743094	162
0	1058	204.970566591609	163
0	1059	204.970566591609	164
0	1060	205	163
0	1062	205.147109760075	162
0	1064	206.054749518112	161
0	1067	206.150030122712	162
0	1068	206.150030122712	163
0	1070	206.98747805867	164
0	1071	206.98747805867	165
0	1072	207.5	164
0	1074	207.647109760075	163
0	1077	207.701278369601	164
0	1078	207.701278369601	165
0	1079	208.554749518112	164
0	1082	209.510059080467	165
0	1083	209.510059080467	166
0	1084	210	165
0	1086	210.147109760075	164
0	1088	211.054749518112	163
0	1091	211.606216161836	164
0	1092	211.606216161836	165
0	1094	212.119684507063	166
0	1095	212.119684507063	167
0	1097	212.257894178247	168
0	1098	212.257894178247	169
0	1099	212.5	168
0	1101	212.647109760075	167
0	1103	213.554749518112	166
0	1106	213.817081432766	167
0	1107	213.817081432766	168
0	1108	215	167
0	1110	215.147109760075	166
0	1112	216.054749518112	165
0	1115	216.548330547444	166
0	1116	216.548330547444	167
0	1117	217.5	166
0	1119	217.647109760075	165
0	1122	217.871330598505	166
0	1123	217.871330598505	167
0	1125	217.994783872024	168
0	1126	217.994783872024	169
0	1127	218.554749518112	168
0	1130	219.13974336152	169
0	1131	219.13974336152	170
0	1132	220	169
0	1134	220.147109760075	168
0	1136	221.054749518112	167
0	1139	221.296973618819	168
0	1140	221.296973618819	169
0	1141	222.5	168
0	1143	222.647109760075	167
0	1146	222.683218774401	168
0	1147	222.683218774401	169
0	1149	223.336191589536	170
0	1150	223.336191589536	171
0	1151	223.554749518112	170
0	1153	225	169
0	1155	225.147109760075	168
0	1158	225.958310434269	169
0	1159	225.958310434269	170
0	1160	226.054749518112	169
0	1163	226.653173438694	170
0	1164	226.653173438694	171
0	1165	227.5	170
0	1167	227.647109760075	169
0	1170	228.27809095069	170
0	1171	228.27809095069	171
0	1172	228.554749518112	170
0	1174	230	169
0	1176	230.147109760075	168
0	1179	230.368912547826	169
0	1180	230.368912547826	170
0	1181	231.054749518112	169
0	1184	231.346247280294	170
0	1185	231.346247280294	171
0	1186	232.5	170
0	1189	232.539977954956	171
0	1190	232.539977954956	172
0	1191	232.647109760075	171
0	1193	233.554749518112	170
0	1196	233.813426582703	171
0	1197	233.813426582703	172
0	1199	234.472957138543	173
0	1200	234.472957138543	174
0	1202	234.965432670677	175
0	1203	234.965432670677	176
0	1204	235	175
0	1206	235.147109760075	174
0	1208	236.054749518112	173
0	1211	236.240597708358	174
0	1212	236.240597708358	175
0	1214	237.483746989895	176
0	1215	237.483746989895	177
0	1216	237.5	176
0	1219	237.597748828004	177
0	1220	237.597748828004	178
0	1221	237.647109760075	177
0	1223	238.554749518112	176
0	1226	239.031964111464	177
0	1227	239.031964111464	178
0	1228	240	177
0	1230	240.147109760075	176
0	1233	240.282705080492	177
0	1234	240.282705080492	178
0	1235	241.054749518112	177
0	1238	241.561176948948	178
0	1239	241.561176948948	179
0	1240	242.5	178
0	1242	242.647109760075	177
0	1245	242.659072302954	178
0	1246	242.659072302954	179
0	1247	243.554749518112	178
0	1250	243.902066990074	179
0	1251	243.902066990074	180
0	1253	244.683167331006	181
0	1254	244.683167331006	182
0	1256	244.959856615718	183
0	1257	244.959856615718	184
0	1258	245	183
0	1260	245.147109760075	182
0	1262	246.054749518112	181
0	1265	247.102713305855	182
0	1266	247.102713305855	183
0	1267	247.5	182
0	1269	247.647109760075	181
0	1271	248.554749518112	180
0	1274	249.28722547694	181
0	1275	249.28722547694	182
0	1276	250	181
0	1278	250.147109760075	180
0	1281	250.983876815846	181
0	1282	250.983876815846	182
0	1283	251.054749518112	181
0	1285	252.5	180
0	1287	252.647109760075	179
0	1290	252.657178675107	180
0	1291	252.657178675107	181
0	1292	253.554749518112	180
0	1295	253.604485223805	181
0	1296	253.604485223805	182
0	1298	254.60414492335	183
0	1299	254.60414492335	184
0	1300	255	183
0	1302	255.147109760075	182
0	1304	256.054749518112	181
0	1307	256.436808709811	182
0	1308	256.436808709811	183
0	1310	256.980390575846	184
0	1311	256.980390575846	185
0	1312	257.5	184
0	1314	257.647109760075	183
0	1317	258.301364212026	184
0	1318	258.301364212026	185
0	1320	258.487815992893	186
0	1321	258.487815992893	187
0	1322	258.554749518112	186
0	1325	259.425026076239	187
0	1326	259.425026076239	188
0	1328	259.504821095049	189
0	1329	259.504821095049	190
0	1330	260	189
0	1332	260.147109760075	188
0	1335	260.225239855346	189
0	1336	260.225239855346	190
0	1337	261.054749518112	189
0	1340	261.625532661698	190
0	1341	261.625532661698	191
0	1342	262.5	190
0	1345	262.571495045498	191
0	1346	262.571495045498	192
0	1347	262.647109760075	191
0	1350	263.226849610247	192
0	1351	263.226849610247	193
0	1352	263.554749518112	192
0	1354	265	191
0	1356	265.147109760075	190
0	1359	265.230448435917	191
0	1360	265.230448435917	192
0	1362	266.02657550788	193
0	1363	266.02657550788	194
0	1364	266.054749518112	193
0	1367	267.024048790339	194
0	1368	267.024048790339	195
0	1369	267.5	194
0	1371	267.647109760075	193
0	1374	268.433955897241	194
0	1375	268.433955897241	195
0	1376	268.554749518112	194
0	1379	268.801100787844	195
0	1380	268.801100787844	196
0	1382	269.566537323179	197
0	1383	269.566537323179	198
0	1384	270	197
0	1386	270.147109760075	196
0	1389	270.878510911573	197
0	1390	270.878510911573	198
0	1391	271.054749518112	197
0	1394	271.892927415657	198
0	1395	271.892927415657	199
0	1396	272.5	198
0	1398	272.647109760075	197
0	1401	272.875300334811	198
0	1402	272.875300334811	199
0	1403	273.554749518112	198
0	1406	273.73200138319	199
0	1407	273.73200138319	200
0	1408	275	199
0	1410	275.147109760075	198
0	1413	275.408239380011	199
0	1414	275.408239380011	200
0	1415	276.054749518112	199
0	1418	276.917859377768	200
0	1419	276.917859377768	201
0	1421	277.483877953852	202
0	1422	277.483877953852	203
0	1423	277.5	202
0	1425	277.647109760075	201
0	1428	277.868863882559	202
0	1429	277.868863882559	203
0	1430	278.554749518112	202
0	1432	280	201
0	1434	280.147109760075	200
0	1437	280.324902316682	201
0	1438	280.324902316682	202
0	1439	281.054749518112	201
0	1442	281.93162902782	202
0	1443	281.93162902782	203
0	1444	282.5	202
0	1446	282.647109760075	201
0	1448	283.554749518112	200
0	1451	283.968035195189	201
0	1452	283.968035195189	202
0	1453	285	201
0	1455	285.147109760075	200
0	1458	285.505154271258	201
0	1459	285.505154271258	202
0	1460	286.054749518112	201
0	1463	286.105061746178	202
0	1464	286.105061746178	203
0	1466	286.242788805833	204
0	1467	286.242788805833	205
0	1469	287.074150425299	206
0	1470	287.074150425299	207
0	1471	287.5	206
0	1473	287.647109760075	205
0	1476	288.252928819556	206
0	1477	288.252928819556	207
0	1478	288.554749518112	206
0	1481	289.722506749648	207
0	1482	289.722506749648	208
0	1483	290	207
0	1485	290.147109760075	206
0	1488	290.873335029543	207
0	1489	290.873335029543	208
0	1490	291.054749518112	207
0	1492	292.5	206
0	1494	292.647109760075	205
0	1497	292.852389273726	206
0	1498	292.852389273726	207
0	1500	293.443280822665	208
0	1501	293.443280822665	209
0	1502	293.554749518112	208
0	1505	294.310269503885	209
0	1506	294.310269503885	210
0	1508	294.692422890517	211
0	1509	294.692422890517	212
0	1510	295	211
0	1512	295.147109760075	210
0	1514	296.054749518112	209
0	1517	296.758387853972	210
0	1518	296.758387853972	211
0	1519	297.5	210
0	1521	297.647109760075	209
0	1524	298.383825865964	210
0	1525	298.383825865964	211
0	1526	298.554749518112	210
0	1529	299.052690537005	211
0	1530	299.052690537005	212
0	1531	300	211
0	1533	300.147109760075	210
0	1536	301.028658531965	211
0	1537	301.028658531965	212
0	1538	301.054749518112	211
0	1541	301.083351859646	212
0	1542	301.083351859646	213
0	1544	302.101447499993	214
0	1545	302.101447499993	215
0	1546	302.5	214
0	1548	302.647109760075	213
0	1551	303.303839169607	214
0	1552	303.303839169607	215
0	1553	303.554749518112	214
0	1555	305	213
0	1557	305.147109760075	212
0	1560	305.483507292522	213
0	1561	305.483507292522	214
0	1562	306.054749518112	213
0	1565	306.919447103993	214
0	1566	306.919447103993	215
0	1567	307.5	214
0	1569	307.647109760075	213
0	1572	308.343777366277	214
0	1573	308.343777366277	215
0	1574	308.554749518112	214
0	1576	310	213
0	1578	310.147109760075	212
0	1580	311.054749518112	211
0	1583	311.216324635579	212
0	1584	311.216324635579	213
0	1586	311.544652470308	214
0	1587	311.544652470308	215
0	1589	312.19415628787	216
0	1590	312.19415628787	217
0	1591	312.5	216
0	1593	312.647109760075	215
0	1595	313.554749518112	214
0	1598	313.836541068382	215
0	1599	313.836541068382	216
0	1601	314.244870241942	217
0	1602	314.244870241942	218
0	1604	314.512485322139	219
0	1605	314.512485322139	220
0	1606	315	219
0	1608	315.147109760075	218
0	1611	315.376112834719	219
0	1612	315.376112834719	220
0	1613	316.054749518112	219
0	1615	317.5	218
0	1617	317.647109760075	217
0	1620	317.781530419722	218
0	1621	317.781530419722	219
0	1623	318.344139959909	220
0	1624	318.344139959909	221
0	1625	318.554749518112	220
0	1628	319.418127213785	221
0	1629	319.418127213785	222
0	1630	320	221
0	1632	320.147109760075	220
0	1634	321.054749518112	219
0	1637	321.0690771137	220
0	1638	321.0690771137	221
0	1640	321.829343564739	222
0	1641	321.829343564739	223
0	1643	322.01306476915	224
0	1644	322.01306476915	225
0	1646	322.341546286347	226
0	1647	322.341546286347	227
0	1648	322.5	226
0	1650	322.647109760075	225
0	1653	323.373601376079	226
0	1654	323.373601376079	227
0	1655	323.554749518112	226
0	1658	323.776285670028	227
0	1659	323.776285670028	228
0	1661	324.719619359321	229
0	1662	324.719619359321	230
0	1663	325	229
0	1665	325.147109760075	228
0	1668	325.818261193119	229
0	1669	325.818261193119	230
0	1670	326.054749518112	229
0	1673	327.114593758726	230
0	1674	327.114593758726	231
0	1675	327.5	230
0	1677	327.647109760075	229
0	1679	328.554749518112	228
0	1682	328.56872932404	229
0	1683	328.56872932404	230
0	1684	330	229
0	1686	330.147109760075	228
0	1689	330.510704010635	229
0	1690	330.510704010635	230
0	1691	331.054749518112	229
0	1694	331.108205142699	230
0	1695	331.108205142699	231
0	1697	331.756537915068	232
0	1698	331.756537915068	233
0	1699	332.5	232
0	1702	332.513795840314	233
0	1703	332.513795840314	234
0	1704	332.647109760075	233
0	1707	332.81716943597	234
0	1708	332.81716943597	235
0	1709	333.554749518112	234
0	1712	334.06402928035	235
0	1713	334.06402928035	236
0	1715	334.835977966785	237
0	1716	334.835977966785	238
0	1717	335	237
0	1719	335.147109760075	236
0	1721	336.054749518112	235
0	1724	336.516345154531	236
0	1725	336.516345154531	237
0	1726	337.5	236
0	1728	337.647109760075	235
0	1731	338.488414947547	236
0	1732	338.488414947547	237
0	1733	338.554749518112	236
0	1735	340	235
0	1737	340.147109760075	234
0	1740	340.191005317593	235
0	1741	340.191005317593	236
0	1742	341.054749518112	235
0	1745	341.449736002097	236
0	1746	341.449736002097	237
0	1748	342.021869727497	238
0	1749	342.021869727497	239
0	1750	342.5	238
0	1752	342.647109760075	237
0	1755	343.428607378051	238
0	1756	343.428607378051	239
0	1757	343.554749518112	238
0	1760	343.75576563082	239
0	1761	343.75576563082	240
0	1763	344.418800634777	241
0	1764	344.418800634777	242
0	1765	345	241
0	1767	345.147109760075	240
0	1769	346.054749518112	239
0	1772	346.645062952316	240
0	1773	346.645062952316	241
0	1774	347.5	240
0	1776	347.647109760075	239
0	1779	348.303774158162	240
0	1780	348.303774158162	241
0	1781	348.554749518112	240
0	1784	348.786779631757	241
0	1785	348.786779631757	242
0	1786	350	241
0	1788	350.147109760075	240
0	1791	350.150159588161	241
0	1792	350.150159588161	242
0	1793	351.054749518112	241
0	1796	351.831108145234	242
0	1797	351.831108145234	243
0	1799	352.228153387128	244
0	1800	352.228153387128	245
0	1801	352.5	244
0	1803	352.647109760075	243
0	1806	353.140294745401	244
0	1807	353.140294745401	245
0	1808	353.554749518112	244
0	1811	354.920566056251	245
0	1812	354.920566056251	246
0	1813	355	245
0	1815	355.147109760075	244
0	1817	356.054749518112	243
0	1820	356.706204539051	244
0	1821	356.706204539051	245
0	1822	357.5	244
0	1824	357.647109760075	243
0	1826	358.554749518112	242
0	1829	358.668030373298	243
0	1830	358.668030373298	244
0	1832	359.980177289067	245
0	1833	359.980177289067	246
0	1834	360	245
0	1836	360.147109760075	244
0	1839	360.730752301107	245
0	1840	360.730752301107	246
0	1842	360.978419499542	247
0	1843	360.978419499542	248
0	1844	361.054749518112	247
0	1847	362.199565881739	248
0	1848	362.199565881739	249
0	1849	362.5	248
0	1851	362.647109760075	247
0	1854	362.797786045065	248
0	1855	362.797786045065	249
0	1856	363.554749518112	248
0	1859	364.354467734255	249
0	1860	364.354467734255	250
0	1861	365	249
0	1863	365.147109760075	248
0	1866	365.604122961233	249
0	1867	365.604122961233	250
0	1868	366.054749518112	249
0	1871	366.73841561929	250
0	1872	366.73841561929	251
0	1873	367.5	250
0	1875	367.647109760075	249
0	1878	368.417830976878	250
0	1879	368.417830976878	251
0	1880	368.554749518112	250
0	1883	369.559118497145	251
0	1884	369.559118497145	252
0	1885	370	251
0	1887	370.147109760075	250
0	1890	370.201308553866	251
0	1891	370.201308553866	252
0	1893	370.577550360612	253
0	1894	370.577550360612	254
0	1895	371.054749518112	253
0	1898	371.666298386009	254
0	1899	371.666298386009	255
0	1900	372.5	254
0	1902	372.647109760075	253
0	1905	372.843807908006	254
0	1906	372.843807908006	255
0	1907	373.554749518112	254
0	1910	373.909507313981	255
0	1911	373.909507313981	256
0	1913	374.179625333985	257
0	1914	374.179625333985	258