version 3
run MMc-41-20221127-11:38:42-21264
attr configname MMc
attr datetime 20221127-11:38:42
attr datetimef 20221127-113842
attr experiment MMc
attr inifile omnetpp.ini
attr iterationvars "$mean=uniform(0.5s, 1.5s), $dev=0.5*(uniform(0.5s, 1.5s)), $time=2.5, $num=3, $0=45732, $1=35463, $2=67563"
attr iterationvarsd mean=uniform(0.5s,_1.5s)/dev=0.5#2a(uniform(0.5s,_1.5s))/time=2.5/num=3/45732/35463/67563
attr iterationvarsf mean=uniform(0.5s,_1.5s),dev=0.5#2a(uniform(0.5s,_1.5s)),time=2.5,num=3,45732,35463,67563-
attr measurement "$mean=uniform(0.5s, 1.5s), $dev=0.5*(uniform(0.5s, 1.5s)), $time=2.5, $num=3, $0=45732, $1=35463, $2=67563"
attr network MMc
attr processid 21264
attr repetition 1
attr replication #1
attr resultdir results
attr runnumber 41
attr seedset 41
itervar dev "0.5*(uniform(0.5s, 1.5s))"
itervar mean "uniform(0.5s, 1.5s)"
itervar num 3
itervar time 2.5
config description "MMc module"
config network MMc
config MMc.source.interArrivalTime "truncnormal(uniform(0.5s, 1.5s), 0.5*(uniform(0.5s, 1.5s)))"
config MMc.mmc.serviceTime 2.5s
config MMc.mmc.c 3
config MMc.mmc.capacity 10000
config record-eventlog false
config **.scalar-recording true
config **.vector-recording true
config repeat 4
config seed-1-mt 45732
config seed-2-mt 35463
config seed-3-mt 67563
config output-vector-file MMc-3-2.5-results/1.vec
config output-scalar-file MMc-3-2.5-results/1.sca

vector 0 MMc.mmc queueLength:vector ETV
attr interpolationmode none
attr recordingmode vector
attr title "queue length"
vector 1 MMc.mmc util:vector ETV
attr interpolationmode none
attr recordingmode vector
attr title resources
0	0	0	0
0	6	10.672707387599	1
0	8	11.770693363123	2
0	9	11.770693363123	3
0	10	12.5	2
0	11	12.5	1
0	15	12.615527856927	2
0	16	12.615527856927	3
0	18	13.033011636639	4
0	19	13.033011636639	5
0	20	13.172707387599	4
0	23	14.673365615231	5
0	24	14.673365615231	6
0	25	15	5
0	26	15	4
0	30	15.237224602956	5
0	31	15.237224602956	6
0	32	15.672707387599	5
0	35	16.290130324491	6
0	36	16.290130324491	7
0	38	17.284374822439	8
0	39	17.284374822439	9
0	40	17.5	8
0	41	17.5	7
0	44	18.172707387599	6
0	47	18.646142312959	7
0	48	18.646142312959	8
0	50	19.817941428242	9
0	51	19.817941428242	10
0	52	20	9
0	53	20	8
0	57	20.597447324203	9
0	58	20.597447324203	10
0	59	20.672707387599	9
0	62	21.046727691737	10
0	63	21.046727691737	11
0	65	21.648160531927	12
0	66	21.648160531927	13
0	68	22.395000229445	14
0	69	22.395000229445	15
0	70	22.5	14
0	71	22.5	13
0	75	22.857281021865	14
0	76	22.857281021865	15
0	77	23.172707387599	14
0	80	23.239415781227	15
0	81	23.239415781227	16
0	83	24.536704474792	17
0	84	24.536704474792	18
0	86	24.866797226748	19
0	87	24.866797226748	20
0	88	25	19
0	89	25	18
0	93	25.297598492414	19
0	94	25.297598492414	20
0	95	25.672707387599	19
0	98	26.509383027515	20
0	99	26.509383027515	21
0	100	27.5	20
0	101	27.5	19
0	104	28.172707387599	18
0	107	28.250883593606	19
0	108	28.250883593606	20
0	110	28.785904528963	21
0	111	28.785904528963	22
0	112	30	21
0	113	30	20
0	117	30.334872344687	21
0	118	30.334872344687	22
0	119	30.672707387599	21
0	122	32.018989485457	22
0	123	32.018989485457	23
0	125	32.444209159965	24
0	126	32.444209159965	25
0	127	32.5	24
0	128	32.5	23
0	131	33.172707387599	22
0	134	33.495515727439	23
0	135	33.495515727439	24
0	137	34.946840422332	25
0	138	34.946840422332	26
0	139	35	25
0	140	35	24
0	144	35.404197433264	25
0	145	35.404197433264	26
0	146	35.672707387599	25
0	149	35.782497757318	26
0	150	35.782497757318	27
0	152	36.955309307499	28
0	153	36.955309307499	29
0	154	37.5	28
0	155	37.5	27
0	158	38.172707387599	26
0	161	39.293954684623	27
0	162	39.293954684623	28
0	163	40	27
0	164	40	26
0	168	40.549274393603	27
0	169	40.549274393603	28
0	170	40.672707387599	27
0	173	41.08964023617	28
0	174	41.08964023617	29
0	176	42.240144770808	30
0	177	42.240144770808	31
0	178	42.5	30
0	179	42.5	29
0	182	43.172707387599	28
0	185	43.532223247693	29
0	186	43.532223247693	30
0	188	44.274701411714	31
0	189	44.274701411714	32
0	190	45	31
0	191	45	30
0	194	45.672707387599	29
0	197	45.946763490705	30
0	198	45.946763490705	31
0	200	46.751893580888	32
0	201	46.751893580888	33
0	202	47.5	32
0	203	47.5	31
0	207	48.076004786864	32
0	208	48.076004786864	33
0	209	48.172707387599	32
0	212	49.114675160598	33
0	213	49.114675160598	34
0	214	50	33
0	215	50	32
0	219	50.276408158712	33
0	220	50.276408158712	34
0	221	50.672707387599	33
0	224	51.473434817742	34
0	225	51.473434817742	35
0	226	52.5	34
0	227	52.5	33
0	230	53.172707387599	32
0	233	53.213907367868	33
0	234	53.213907367868	34
0	236	53.382044310985	35
0	237	53.382044310985	36
0	239	53.946173918441	37
0	240	53.946173918441	38
0	242	54.941585934458	39
0	243	54.941585934458	40
0	244	55	39
0	245	55	38
0	249	55.471521620884	39
0	250	55.471521620884	40
0	251	55.672707387599	39
0	254	56.882866625695	40
0	255	56.882866625695	41
0	257	57.318749004329	42
0	258	57.318749004329	43
0	259	57.5	42
0	260	57.5	41
0	263	58.172707387599	40
0	266	58.829984053275	41
0	267	58.829984053275	42
0	269	59.959771316525	43
0	270	59.959771316525	44
0	271	60	43
0	272	60	42
0	276	60.205059516389	43
0	277	60.205059516389	44
0	278	60.672707387599	43
0	281	61.550224287108	44
0	282	61.550224287108	45
0	283	62.5	44
0	284	62.5	43
0	288	63.07782488443	44
0	289	63.07782488443	45
0	290	63.172707387599	44
0	293	64.435901735394	45
0	294	64.435901735394	46
0	296	64.789292943208	47
0	297	64.789292943208	48
0	298	65	47
0	299	65	46
0	303	65.526137053522	47
0	304	65.526137053522	48
0	305	65.672707387599	47
0	308	66.269776200334	48
0	309	66.269776200334	49
0	311	67.330797044885	50
0	312	67.330797044885	51
0	313	67.5	50
0	314	67.5	49
0	317	68.172707387599	48
0	320	68.498718577767	49
0	321	68.498718577767	50
0	323	69.588430678969	51
0	324	69.588430678969	52
0	325	70	51
0	326	70	50
0	330	70.590194950905	51
0	331	70.590194950905	52
0	332	70.672707387599	51
0	335	72.146277343879	52
0	336	72.146277343879	53
0	337	72.5	52
0	338	72.5	51
0	342	72.856726937717	52
0	343	72.856726937717	53
0	344	73.172707387599	52
0	347	74.019765852471	53
0	348	74.019765852471	54
0	349	75	53
0	350	75	52
0	354	75.140585966431	53
0	355	75.140585966431	54
0	356	75.672707387599	53
0	359	76.204652280284	54
0	360	76.204652280284	55
0	362	76.587313663455	56
0	363	76.587313663455	57
0	364	77.5	56
0	365	77.5	55
0	369	77.553229236941	56
0	370	77.553229236941	57
0	371	78.172707387599	56
0	374	78.605973523702	57
0	375	78.605973523702	58
0	377	79.32121588169	59
0	378	79.32121588169	60
0	379	80	59
0	380	80	58
0	383	80.672707387599	57
0	386	81.754298361904	58
0	387	81.754298361904	59
0	389	82.377555117865	60
0	390	82.377555117865	61
0	391	82.5	60
0	392	82.5	59
0	395	83.172707387599	58
0	398	83.377452785035	59
0	399	83.377452785035	60
0	401	84.567979169922	61
0	402	84.567979169922	62
0	403	85	61
0	404	85	60
0	408	85.252682982634	61
0	409	85.252682982634	62
0	411	85.47416328422	63
0	412	85.47416328422	64
0	413	85.672707387599	63
0	416	86.130958335672	64
0	417	86.130958335672	65
0	418	87.5	64
0	419	87.5	63
0	423	88.070516581232	64
0	424	88.070516581232	65
0	425	88.172707387599	64
0	428	89.036291988438	65
0	429	89.036291988438	66
0	430	90	65
0	431	90	64
0	435	90.190186616165	65
0	436	90.190186616165	66
0	437	90.672707387599	65
0	440	90.918472917387	66
0	441	90.918472917387	67
0	443	91.198438519658	68
0	444	91.198438519658	69
0	446	91.964834339512	70
0	447	91.964834339512	71
0	448	92.5	70
0	449	92.5	69
0	452	93.172707387599	68
0	455	93.414384381884	69
0	456	93.414384381884	70
0	458	94.724737927609	71
0	459	94.724737927609	72
0	460	95	71
0	461	95	70
0	464	95.672707387599	69
0	467	96.369606903231	70
0	468	96.369606903231	71
0	470	97.178417909444	72
0	471	97.178417909444	73
0	472	97.5	72
0	473	97.5	71
0	477	97.931156484388	72
0	478	97.931156484388	73
0	479	98.172707387599	72
0	482	99.065828297641	73
0	483	99.065828297641	74
0	485	99.306409581122	75
0	486	99.306409581122	76
0	487	100	75
0	488	100	74
0	492	100.02690987377	75
0	493	100.02690987377	76
0	494	100.672707387599	75
0	497	101.96304584775	76
0	498	101.96304584775	77
0	499	102.5	76
0	500	102.5	75
0	503	103.172707387599	74
0	506	104.271646290901	75
0	507	104.271646290901	76
0	508	105	75
0	509	105	74
0	513	105.459463155889	75
0	514	105.459463155889	76
0	515	105.672707387599	75
0	518	107.329454655175	76
0	519	107.329454655175	77
0	520	107.5	76
0	521	107.5	75
0	525	108.027327783887	76
0	526	108.027327783887	77
0	527	108.172707387599	76
0	530	109.977880962917	77
0	531	109.977880962917	78
0	532	110	77
0	533	110	76
0	537	110.101419046229	77
0	538	110.101419046229	78
0	539	110.672707387599	77
0	542	111.77248291678	78
0	543	111.77248291678	79
0	545	112.487323258002	80
0	546	112.487323258002	81
0	547	112.5	80
0	548	112.5	79
0	551	113.172707387599	78
0	554	113.765514006279	79
0	555	113.765514006279	80
0	556	115	79
0	557	115	78
0	561	115.169887415701	79
0	562	115.169887415701	80
0	563	115.672707387599	79
0	566	115.791161676774	80
0	567	115.791161676774	81
0	569	116.941235074275	82
0	570	116.941235074275	83
0	571	117.5	82
0	572	117.5	81
0	575	118.172707387599	80
0	578	118.457157434214	81
0	579	118.457157434214	82
0	581	119.753192774388	83
0	582	119.753192774388	84
0	583	120	83
0	584	120	82
0	587	120.672707387599	81
0	590	120.824713944761	82
0	591	120.824713944761	83
0	593	121.878794495644	84
0	594	121.878794495644	85
0	595	122.5	84
0	596	122.5	83
0	600	122.751938492796	84
0	601	122.751938492796	85
0	602	123.172707387599	84
0	605	124.252016738329	85
0	606	124.252016738329	86
0	607	125	85
0	608	125	84
0	612	125.477024277343	85
0	613	125.477024277343	86
0	614	125.672707387599	85
0	617	127.152898454635	86
0	618	127.152898454635	87
0	619	127.5	86
0	620	127.5	85
0	623	128.172707387599	84
0	626	128.590369893618	85
0	627	128.590369893618	86
0	629	128.910558022949	87
0	630	128.910558022949	88
0	632	129.469992634222	89
0	633	129.469992634222	90
0	634	130	89
0	635	130	88
0	639	130.52881590694	89
0	640	130.52881590694	90
0	641	130.672707387599	89
0	644	131.372754740036	90
0	645	131.372754740036	91
0	646	132.5	90
0	647	132.5	89
0	651	132.811335851459	90
0	652	132.811335851459	91
0	653	133.172707387599	90
0	656	133.2260465512	91
0	657	133.2260465512	92
0	659	134.349325768711	93
0	660	134.349325768711	94
0	662	134.697803561141	95
0	663	134.697803561141	96
0	664	135	95
0	665	135	94
0	669	135.157387825011	95
0	670	135.157387825011	96
0	671	135.672707387599	95
0	674	136.188162496683	96
0	675	136.188162496683	97
0	677	137.311541294266	98
0	678	137.311541294266	99
0	679	137.5	98
0	680	137.5	97
0	683	138.172707387599	96
0	686	138.376858371646	97
0	687	138.376858371646	98
0	689	139.601721098515	99
0	690	139.601721098515	100
0	691	140	99
0	692	140	98
0	695	140.672707387599	97
0	698	140.904342492801	98
0	699	140.904342492801	99
0	700	142.5	98
0	701	142.5	97
0	705	142.517214864442	98
0	706	142.517214864442	99
0	707	143.172707387599	98
0	710	143.409902558066	99
0	711	143.409902558066	100
0	713	143.657503213752	101
0	714	143.657503213752	102
0	716	144.079795786772	103
0	717	144.079795786772	104
0	718	145	103
0	719	145	102
0	722	145.672707387599	101
0	725	146.807633299269	102
0	726	146.807633299269	103
0	727	147.5	102
0	728	147.5	101
0	731	148.172707387599	100
0	734	148.692293032356	101
0	735	148.692293032356	102
0	737	149.877259712003	103
0	738	149.877259712003	104
0	739	150	103
0	740	150	102
0	744	150.557277235491	103
0	745	150.557277235491	104
0	746	150.672707387599	103
0	749	151.621670429607	104
0	750	151.621670429607	105
0	751	152.5	104
0	752	152.5	103
0	756	152.812864549131	104
0	757	152.812864549131	105
0	758	153.172707387599	104
0	761	154.096159478129	105
0	762	154.096159478129	106
0	763	155	105
0	764	155	104
0	768	155.130867184852	105
0	769	155.130867184852	106
0	770	155.672707387599	105
0	773	156.39314976267	106
0	774	156.39314976267	107
0	775	157.5	106
0	776	157.5	105
0	780	157.68781127126	106
0	781	157.68781127126	107
0	782	158.172707387599	106
0	785	158.477418326676	107
0	786	158.477418326676	108
0	788	159.433224195229	109
0	789	159.433224195229	110
0	790	160	109
0	791	160	108
0	795	160.24146996606	109
0	796	160.24146996606	110
0	797	160.672707387599	109
0	800	160.929411561956	110
0	801	160.929411561956	111
0	803	161.647206495408	112
0	804	161.647206495408	113
0	806	161.803995344214	114
0	807	161.803995344214	115
0	808	162.5	114
0	809	162.5	113
0	813	163.025666180736	114
0	814	163.025666180736	115
0	815	163.172707387599	114
0	818	163.3955392821	115
0	819	163.3955392821	116
0	821	164.076191165246	117
0	822	164.076191165246	118
0	823	165	117
0	824	165	116
0	828	165.64051877257	117
0	829	165.64051877257	118
0	830	165.672707387599	117
0	833	166.506904235717	118
0	834	166.506904235717	119
0	836	167.178132924917	120
0	837	167.178132924917	121
0	838	167.5	120
0	839	167.5	119
0	843	168.006451485872	120
0	844	168.006451485872	121
0	845	168.172707387599	120
0	848	168.72773096263	121
0	849	168.72773096263	122
0	851	169.921395542716	123
0	852	169.921395542716	124
0	853	170	123
0	854	170	122
0	857	170.672707387599	121
0	860	170.978256344752	122
0	861	170.978256344752	123
0	863	172.226945621466	124
0	864	172.226945621466	125
0	865	172.5	124
0	866	172.5	123
0	869	173.172707387599	122
0	872	173.279982442613	123
0	873	173.279982442613	124
0	875	173.415510060073	125
0	876	173.415510060073	126
0	878	174.359078809813	127
0	879	174.359078809813	128
0	880	175	127
0	881	175	126
0	885	175.500894083237	127
0	886	175.500894083237	128
0	887	175.672707387599	127
0	890	176.110133961676	128
0	891	176.110133961676	129
0	892	177.5	128
0	893	177.5	127
0	897	177.525134503792	128
0	898	177.525134503792	129
0	899	178.172707387599	128
0	902	178.353135586853	129
0	903	178.353135586853	130
0	905	178.444912399586	131
0	906	178.444912399586	132
0	908	179.371121519134	133
0	909	179.371121519134	134
0	910	180	133
0	911	180	132
0	915	180.272039319618	133
0	916	180.272039319618	134
0	917	180.672707387599	133
0	920	181.609789077202	134
0	921	181.609789077202	135
0	922	182.5	134
0	923	182.5	133
0	927	182.676505759913	134
0	928	182.676505759913	135
0	929	183.172707387599	134
0	932	183.671681972921	135
0	933	183.671681972921	136
0	935	184.872941166791	137
0	936	184.872941166791	138
0	937	185	137
0	938	185	136
0	942	185.158199373965	137
0	943	185.158199373965	138
0	944	185.672707387599	137
0	947	186.316276014939	138
0	948	186.316276014939	139
0	949	187.5	138
0	950	187.5	137
0	953	188.172707387599	136
0	956	188.347020028548	137
0	957	188.347020028548	138
0	959	188.716914695181	139
0	960	188.716914695181	140
0	961	190	139
0	962	190	138
0	966	190.188686216814	139
0	967	190.188686216814	140
0	968	190.672707387599	139
0	971	192.42117659358	140
0	972	192.42117659358	141
0	973	192.5	140
0	974	192.5	139
0	977	193.172707387599	138
0	980	193.680467555731	139
0	981	193.680467555731	140
0	983	194.267935227914	141
0	984	194.267935227914	142
0	985	195	141
0	986	195	140
0	990	195.514485570685	141
0	991	195.514485570685	142
0	992	195.672707387599	141
0	995	196.811673828512	142
0	996	196.811673828512	143
0	997	197.5	142
0	998	197.5	141
0	1001	198.172707387599	140
0	1004	198.238130854608	141
0	1005	198.238130854608	142
0	1007	199.531491273542	143
0	1008	199.531491273542	144
0	1010	199.890144569836	145
0	1011	199.890144569836	146
0	1012	200	145
0	1013	200	144
0	1016	200.672707387599	143
0	1019	201.259439649062	144
0	1020	201.259439649062	145
0	1022	201.437218951079	146
0	1023	201.437218951079	147
0	1024	202.5	146
0	1025	202.5	145
0	1029	202.629394289548	146
0	1030	202.629394289548	147
0	1032	202.982512186835	148
0	1033	202.982512186835	149
0	1034	203.172707387599	148
0	1037	204.526382771093	149
0	1038	204.526382771093	150
0	1039	205	149
0	1040	205	148
0	1044	205.066414664712	149
0	1045	205.066414664712	150
0	1046	205.672707387599	149
0	1049	205.789852520144	150
0	1050	205.789852520144	151
0	1052	206.170778674416	152
0	1053	206.170778674416	153
0	1055	207.212208560217	154
0	1056	207.212208560217	155
0	1058	207.481860600695	156
0	1059	207.481860600695	157
0	1060	207.5	156
0	1061	207.5	155
0	1065	207.879552969118	156
0	1066	207.879552969118	157
0	1067	208.172707387599	156
0	1070	209.337845999838	157
0	1071	209.337845999838	158
0	1072	210	157
0	1073	210	156
0	1077	210.320772698658	157
0	1078	210.320772698658	158
0	1079	210.672707387599	157
0	1082	211.737875054586	158
0	1083	211.737875054586	159
0	1085	212.199517653778	160
0	1086	212.199517653778	161
0	1087	212.5	160
0	1088	212.5	159
0	1091	213.172707387599	158
0	1094	213.411868782143	159
0	1095	213.411868782143	160
0	1097	214.574859453553	161
0	1098	214.574859453553	162
0	1099	215	161
0	1100	215	160
0	1103	215.672707387599	159
0	1106	215.730438586917	160
0	1107	215.730438586917	161
0	1109	216.297766891969	162
0	1110	216.297766891969	163
0	1112	216.814295967142	164
0	1113	216.814295967142	165
0	1114	217.5	164
0	1115	217.5	163
0	1119	218.16628137247	164
0	1120	218.16628137247	165
0	1121	218.172707387599	164
0	1123	220	163
0	1124	220	162
0	1128	220.231555695411	163
0	1129	220.231555695411	164
0	1130	220.672707387599	163
0	1133	221.969724199992	164
0	1134	221.969724199992	165
0	1135	222.5	164
0	1136	222.5	163
0	1140	223.053650511651	164
0	1141	223.053650511651	165
0	1142	223.172707387599	164
0	1145	224.126658084375	165
0	1146	224.126658084375	166
0	1147	225	165
0	1148	225	164
0	1151	225.672707387599	163
0	1154	226.051074409644	164
0	1155	226.051074409644	165
0	1157	227.074390891424	166
0	1158	227.074390891424	167
0	1159	227.5	166
0	1160	227.5	165
0	1163	228.172707387599	164
0	1166	228.393080764837	165
0	1167	228.393080764837	166
0	1169	229.567182050154	167
0	1170	229.567182050154	168
0	1171	230	167
0	1172	230	166
0	1176	230.267924006015	167
0	1177	230.267924006015	168
0	1179	230.383003068166	169
0	1180	230.383003068166	170
0	1181	230.672707387599	169
0	1184	231.664251346861	170
0	1185	231.664251346861	171
0	1187	232.370090166031	172
0	1188	232.370090166031	173
0	1189	232.5	172
0	1190	232.5	171
0	1193	233.172707387599	170
0	1196	233.57058108637	171
0	1197	233.57058108637	172
0	1199	234.007850374733	173
0	1200	234.007850374733	174
0	1202	234.279524226875	175
0	1203	234.279524226875	176
0	1205	234.98498264877	177
0	1206	234.98498264877	178
0	1207	235	177
0	1208	235	176
0	1211	235.672707387599	175
0	1214	236.234336587586	176
0	1215	236.234336587586	177
0	1217	236.768420802493	178
0	1218	236.768420802493	179
0	1219	237.5	178
0	1220	237.5	177
0	1224	238.014310201214	178
0	1225	238.014310201214	179
0	1226	238.172707387599	178
0	1228	240	177
0	1229	240	176
0	1233	240.0807820393	177
0	1234	240.0807820393	178
0	1235	240.672707387599	177
0	1238	241.005680670284	178
0	1239	241.005680670284	179
0	1241	241.679795674648	180
0	1242	241.679795674648	181
0	1243	242.5	180
0	1244	242.5	179
0	1247	243.172707387599	178
0	1250	243.250514050009	179
0	1251	243.250514050009	180
0	1253	244.287090612727	181
0	1254	244.287090612727	182
0	1255	245	181
0	1256	245	180
0	1259	245.672707387599	179
0	1262	246.226048713051	180
0	1263	246.226048713051	181
0	1264	247.5	180
0	1265	247.5	179
0	1268	248.172707387599	178
0	1271	248.663469021197	179
0	1272	248.663469021197	180
0	1274	249.377008581221	181
0	1275	249.377008581221	182
0	1276	250	181
0	1277	250	180
0	1281	250.526080335342	181
0	1282	250.526080335342	182
0	1283	250.672707387599	181
0	1286	252.003888494123	182
0	1287	252.003888494123	183
0	1288	252.5	182
0	1289	252.5	181
0	1292	253.172707387599	180
0	1295	253.610843215899	181
0	1296	253.610843215899	182
0	1298	254.151697981448	183
0	1299	254.151697981448	184
0	1301	254.555805069549	185
0	1302	254.555805069549	186
0	1303	255	185
0	1304	255	184
0	1307	255.672707387599	183
0	1310	255.686730380887	184
0	1311	255.686730380887	185
0	1313	256.543498513299	186
0	1314	256.543498513299	187
0	1316	256.957168174529	188
0	1317	256.957168174529	189
0	1318	257.5	188
0	1319	257.5	187
0	1322	258.172707387599	186
0	1325	258.259975981519	187
0	1326	258.259975981519	188
0	1328	258.868287753407	189
0	1329	258.868287753407	190
0	1331	259.963630682769	191
0	1332	259.963630682769	192
0	1333	260	191
0	1334	260	190
0	1337	260.672707387599	189
0	1340	260.811706778704	190
0	1341	260.811706778704	191
0	1343	261.540183986761	192
0	1344	261.540183986761	193
0	1345	262.5	192
0	1346	262.5	191
0	1350	263.133701482554	192
0	1351	263.133701482554	193
0	1352	263.172707387599	192
0	1355	263.427616742139	193
0	1356	263.427616742139	194
0	1358	264.929131302658	195
0	1359	264.929131302658	196
0	1360	265	195
0	1361	265	194
0	1364	265.672707387599	193
0	1367	265.690259424543	194
0	1368	265.690259424543	195
0	1369	267.5	194
0	1370	267.5	193
0	1374	267.801870188603	194
0	1375	267.801870188603	195
0	1376	268.172707387599	194
0	1379	269.01838404663	195
0	1380	269.01838404663	196
0	1381	270	195
0	1382	270	194
0	1386	270.420384973616	195
0	1387	270.420384973616	196
0	1388	270.672707387599	195
0	1391	270.775739065162	196
0	1392	270.775739065162	197
0	1394	271.286909400471	198
0	1395	271.286909400471	199
0	1397	272.125100991124	200
0	1398	272.125100991124	201
0	1399	272.5	200
0	1400	272.5	199
0	1404	273.168769911256	200
0	1405	273.168769911256	201
0	1406	273.172707387599	200
0	1409	274.648252840784	201
0	1410	274.648252840784	202
0	1411	275	201
0	1412	275	200
0	1416	275.320595424108	201
0	1417	275.320595424108	202
0	1418	275.672707387599	201
0	1421	277.222163784647	202
0	1422	277.222163784647	203
0	1423	277.5	202
0	1424	277.5	201
0	1427	278.172707387599	200
0	1430	278.423986865307	201
0	1431	278.423986865307	202
0	1433	279.533280517916	203
0	1434	279.533280517916	204
0	1436	279.990058571811	205
0	1437	279.990058571811	206
0	1438	280	205
0	1439	280	204
0	1442	280.672707387599	203
0	1445	281.604637382489	204
0	1446	281.604637382489	205
0	1448	282.331108004651	206
0	1449	282.331108004651	207
0	1450	282.5	206
0	1451	282.5	205
0	1454	283.172707387599	204
0	1457	283.202179666386	205
0	1458	283.202179666386	206
0	1460	284.352137558168	207
0	1461	284.352137558168	208
0	1462	285	207
0	1463	285	206
0	1466	285.672707387599	205
0	1469	287.13366466287	206
0	1470	287.13366466287	207
0	1471	287.5	206
0	1472	287.5	205
0	1475	288.172707387599	204
0	1478	289.290416826483	205
0	1479	289.290416826483	206
0	1481	289.399055001899	207
0	1482	289.399055001899	208
0	1483	290	207
0	1484	290	206
0	1487	290.672707387599	205
0	1490	291.282731228951	206
0	1491	291.282731228951	207
0	1493	291.767022379524	208
0	1494	291.767022379524	209
0	1495	292.5	208
0	1496	292.5	207
0	1500	292.671825148848	208
0	1501	292.671825148848	209
0	1503	293.041610587217	210
0	1504	293.041610587217	211
0	1505	293.172707387599	210
0	1508	293.536615109355	211
0	1509	293.536615109355	212
0	1511	294.155184993038	213
0	1512	294.155184993038	214
0	1513	295	213
0	1514	295	212
0	1518	295.45711139399	213
0	1519	295.45711139399	214
0	1520	295.672707387599	213
0	1523	296.181537641768	214
0	1524	296.181537641768	215
0	1526	297.363577298239	216
0	1527	297.363577298239	217
0	1528	297.5	216
0	1529	297.5	215
0	1532	298.172707387599	214
0	1535	298.53644451858	215
0	1536	298.53644451858	216
0	1537	300	215
0	1538	300	214
0	1542	300.299172360604	215
0	1543	300.299172360604	216
0	1544	300.672707387599	215
0	1547	301.801114274893	216
0	1548	301.801114274893	217
0	1550	302.318446403926	218
0	1551	302.318446403926	219
0	1552	302.5	218
0	1553	302.5	217
0	1556	303.172707387599	216
0	1559	303.26471946601	217
0	1560	303.26471946601	218
0	1562	303.496109742881	219
0	1563	303.496109742881	220
0	1565	304.175100391957	221
0	1566	304.175100391957	222
0	1567	305	221
0	1568	305	220
0	1571	305.672707387599	219
0	1574	306.12281052994	220
0	1575	306.12281052994	221
0	1577	306.40505508252	222
0	1578	306.40505508252	223
0	1579	307.5	222
0	1580	307.5	221
0	1584	307.605300833351	222
0	1585	307.605300833351	223
0	1586	308.172707387599	222
0	1589	309.257754970712	223
0	1590	309.257754970712	224
0	1591	310	223
0	1592	310	222
0	1595	310.672707387599	221
0	1598	310.941948990461	222
0	1599	310.941948990461	223
0	1601	311.302690833056	224
0	1602	311.302690833056	225
0	1604	312.345028721605	226
0	1605	312.345028721605	227
0	1606	312.5	226
0	1607	312.5	225
0	1610	313.172707387599	224
0	1613	313.601342685871	225
0	1614	313.601342685871	226
0	1616	314.246102172031	227
0	1617	314.246102172031	228
0	1618	315	227
0	1619	315	226
0	1623	315.401388764373	227
0	1624	315.401388764373	228
0	1625	315.672707387599	227
0	1628	316.3945200049	228
0	1629	316.3945200049	229
0	1631	317.053507792132	230
0	1632	317.053507792132	231
0	1633	317.5	230
0	1634	317.5	229
0	1637	318.172707387599	228
0	1640	318.322707367888	229
0	1641	318.322707367888	230
0	1643	318.634774784635	231
0	1644	318.634774784635	232
0	1646	319.844125298632	233
0	1647	319.844125298632	234
0	1648	320	233
0	1649	320	232
0	1652	320.672707387599	231
0	1655	320.846602762488	232
0	1656	320.846602762488	233
0	1658	321.352076283864	234
0	1659	321.352076283864	235
0	1660	322.5	234
0	1661	322.5	233
0	1665	322.977782338354	234
0	1666	322.977782338354	235
0	1667	323.172707387599	234
0	1670	324.227034936101	235
0	1671	324.227034936101	236
0	1672	325	235
0	1673	325	234
0	1677	325.080643220263	235
0	1678	325.080643220263	236
0	1679	325.672707387599	235
0	1682	325.899728683287	236
0	1683	325.899728683287	237
0	1685	326.621289520313	238
0	1686	326.621289520313	239
0	1688	327.375104883373	240
0	1689	327.375104883373	241
0	1690	327.5	240
0	1691	327.5	239
0	1694	328.172707387599	238
0	1697	328.292401738395	239
0	1698	328.292401738395	240
0	1700	328.895778531113	241
0	1701	328.895778531113	242
0	1703	329.897356752523	243
0	1704	329.897356752523	244
0	1705	330	243
0	1706	330	242
0	1709	330.672707387599	241
0	1712	331.21679695859	242
0	1713	331.21679695859	243
0	1714	332.5	242
0	1715	332.5	241
0	1719	332.621600087744	242
0	1720	332.621600087744	243
0	1721	333.172707387599	242
0	1724	333.541905807881	243
0	1725	333.541905807881	244
0	1727	334.433347640766	245
0	1728	334.433347640766	246
0	1729	335	245
0	1730	335	244
0	1734	335.023278105019	245
0	1735	335.023278105019	246
0	1736	335.672707387599	245
0	1739	335.686230594518	246
0	1740	335.686230594518	247
0	1741	337.5	246
0	1742	337.5	245
0	1746	338.09159139501	246
0	1747	338.09159139501	247
0	1748	338.172707387599	246
0	1750	340	245
0	1751	340	244
0	1755	340.443750070695	245
0	1756	340.443750070695	246
0	1757	340.672707387599	245
0	1759	342.5	244
0	1760	342.5	243
0	1764	342.693841289235	244
0	1765	342.693841289235	245
0	1766	343.172707387599	244
0	1769	343.582069366342	245
0	1770	343.582069366342	246
0	1772	344.556953968127	247
0	1773	344.556953968127	248
0	1774	345	247
0	1775	345	246
0	1778	345.672707387599	245
0	1781	345.789345498346	246
0	1782	345.789345498346	247
0	1784	346.930273123113	248
0	1785	346.930273123113	249
0	1786	347.5	248
0	1787	347.5	247
0	1791	347.927751482358	248
0	1792	347.927751482358	249
0	1794	347.94971109155	250
0	1795	347.94971109155	251
0	1796	348.172707387599	250
0	1799	348.788745512081	251
0	1800	348.788745512081	252
0	1801	350	251
0	1802	350	250
0	1806	350.306955115866	251
0	1807	350.306955115866	252
0	1808	350.672707387599	251
0	1811	351.557861614536	252
0	1812	351.557861614536	253
0	1813	352.5	252
0	1814	352.5	251
0	1818	352.942292281756	252
0	1819	352.942292281756	253
0	1821	353.045252572403	254
0	1822	353.045252572403	255
0	1823	353.172707387599	254
0	1826	354.075565370922	255
0	1827	354.075565370922	256
0	1828	355	255
0	1829	355	254
0	1833	355.421929503045	255
0	1834	355.421929503045	256
0	1835	355.672707387599	255
0	1838	356.645294096522	256
0	1839	356.645294096522	257
0	1841	356.858046436524	258
0	1842	356.858046436524	259
0	1843	357.5	258
0	1844	357.5	257
0	1847	358.172707387599	256
0	1850	358.41577835241	257
0	1851	358.41577835241	258
0	1852	360	257
0	1853	360	256
0	1856	360.672707387599	255
0	1859	361.397077914645	256
0	1860	361.397077914645	257
0	1862	361.822514411997	258
0	1863	361.822514411997	259
0	1864	362.5	258
0	1865	362.5	257
0	1869	362.544233631467	258
0	1870	362.544233631467	259
0	1871	363.172707387599	258
0	1874	363.422304617295	259
0	1875	363.422304617295	260
0	1876	365	259
0	1877	365	258
0	1881	365.416959190829	259
0	1882	365.416959190829	260
0	1883	365.672707387599	259
0	1886	367.179660642149	260
0	1887	367.179660642149	261
0	1888	367.5	260
0	1889	367.5	259
0	1892	368.172707387599	258
0	1895	368.419733324614	259
0	1896	368.419733324614	260
0	1898	369.549172433514	261
0	1899	369.549172433514	262
0	1901	369.970392097109	263
0	1902	369.970392097109	264
0	1903	370	263
0	1904	370	262
0	1907	370.672707387599	261
0	1910	371.3014839242	262
0	1911	371.3014839242	263
0	1913	371.543632510818	264
0	1914	371.543632510818	265
0	1915	372.5	264
0	1916	372.5	263
0	1920	372.760793441315	264
0	1921	372.760793441315	265
0	1922	373.172707387599	264
0	1925	374.419368309386	265
0	1926	374.419368309386	266
0	1927	375	265
0	1928	375	264
0	1932	375.540806393219	265
0	1933	375.540806393219	266
0	1934	375.672707387599	265
0	1936	377.5	264
0	1937	377.5	263
0	1941	377.580228846317	264
0	1942	377.580228846317	265
0	1943	378.172707387599	264
0	1946	379.661930250483	265
0	1947	379.661930250483	266
0	1948	380	265
0	1949	380	264
0	1953	380.527750603504	265
0	1954	380.527750603504	266
0	1955	380.672707387599	265
0	1958	381.466031088938	266
0	1959	381.466031088938	267
0	1961	382.083903392046	268
0	1962	382.083903392046	269
0	1963	382.5	268
0	1964	382.5	267
0	1968	383.098159459477	268
0	1969	383.098159459477	269
0	1970	383.172707387599	268
0	1973	384.941994026145	269
0	1974	384.941994026145	270
0	1975	385	269
0	1976	385	268
0	1980	385.246420548931	269
0	1981	385.246420548931	270
0	1982	385.672707387599	269
0	1985	386.384220605994	270
0	1986	386.384220605994	271
0	1987	387.5	270
0	1988	387.5	269
0	1992	387.982439234589	270
0	1993	387.982439234589	271
0	1994	388.172707387599	270
0	1997	389.954811438719	271
0	1998	389.954811438719	272
0	1999	390	271
0	2000	390	270
0	2003	390.672707387599	269
0	2006	390.817704213714	270
0	2007	390.817704213714	271
0	2009	392.136983609531	272
0	2010	392.136983609531	273
0	2011	392.5	272
0	2012	392.5	271
0	2015	393.172707387599	270
0	2018	393.546277341168	271
0	2019	393.546277341168	272
0	2021	393.945138316509	273
0	2022	393.945138316509	274
0	2023	395	273
0	2024	395	272
0	2028	395.457220428291	273
0	2029	395.457220428291	274
0	2030	395.672707387599	273