version 3
run MMc-42-20221127-11:38:42-21264
attr configname MMc
attr datetime 20221127-11:38:42
attr datetimef 20221127-113842
attr experiment MMc
attr inifile omnetpp.ini
attr iterationvars "$mean=uniform(0.5s, 1.5s), $dev=0.5*(uniform(0.5s, 1.5s)), $time=2.5, $num=3, $0=47853, $1=24674, $2=96433"
attr iterationvarsd mean=uniform(0.5s,_1.5s)/dev=0.5#2a(uniform(0.5s,_1.5s))/time=2.5/num=3/47853/24674/96433
attr iterationvarsf mean=uniform(0.5s,_1.5s),dev=0.5#2a(uniform(0.5s,_1.5s)),time=2.5,num=3,47853,24674,96433-
attr measurement "$mean=uniform(0.5s, 1.5s), $dev=0.5*(uniform(0.5s, 1.5s)), $time=2.5, $num=3, $0=47853, $1=24674, $2=96433"
attr network MMc
attr processid 21264
attr repetition 2
attr replication #2
attr resultdir results
attr runnumber 42
attr seedset 42
itervar dev "0.5*(uniform(0.5s, 1.5s))"
itervar mean "uniform(0.5s, 1.5s)"
itervar num 3
itervar time 2.5
config description "MMc module"
config network MMc
config MMc.source.interArrivalTime "truncnormal(uniform(0.5s, 1.5s), 0.5*(uniform(0.5s, 1.5s)))"
config MMc.mmc.serviceTime 2.5s
config MMc.mmc.c 3
config MMc.mmc.capacity 10000
config record-eventlog false
config **.scalar-recording true
config **.vector-recording true
config repeat 4
config seed-1-mt 47853
config seed-2-mt 24674
config seed-3-mt 96433
config output-vector-file MMc-3-2.5-results/2.vec
config output-scalar-file MMc-3-2.5-results/2.sca

vector 0 MMc.mmc queueLength:vector ETV
attr interpolationmode none
attr recordingmode vector
attr title "queue length"
vector 1 MMc.mmc util:vector ETV
attr interpolationmode none
attr recordingmode vector
attr title resources
0	0	0	0
0	6	11.520573410365	1
0	8	12.043176649224	2
0	9	12.043176649224	3
0	10	12.5	2
0	11	12.5	1
0	15	12.922046444414	2
0	16	12.922046444414	3
0	18	12.997197870069	4
0	19	12.997197870069	5
0	21	13.804113871546	6
0	22	13.804113871546	7
0	23	14.020573410365	6
0	26	14.195799265753	7
0	27	14.195799265753	8
0	28	15	7
0	29	15	6
0	33	16.025200875604	7
0	34	16.025200875604	8
0	36	16.35570134068	9
0	37	16.35570134068	10
0	38	16.520573410365	9
0	40	17.5	8
0	41	17.5	7
0	45	17.837259871368	8
0	46	17.837259871368	9
0	48	18.55482930072	10
0	49	18.55482930072	11
0	50	19.020573410365	10
0	53	19.9027860276	11
0	54	19.9027860276	12
0	55	20	11
0	56	20	10
0	60	20.770982156259	11
0	61	20.770982156259	12
0	63	21.345937906883	13
0	64	21.345937906883	14
0	65	21.520573410365	13
0	67	22.5	12
0	68	22.5	11
0	72	22.57289406194	12
0	73	22.57289406194	13
0	75	23.760298046149	14
0	76	23.760298046149	15
0	77	24.020573410365	14
0	80	24.524282889035	15
0	81	24.524282889035	16
0	82	25	15
0	83	25	14
0	87	25.674371983891	15
0	88	25.674371983891	16
0	90	26.413380357209	17
0	91	26.413380357209	18
0	92	26.520573410365	17
0	95	27.232001769795	18
0	96	27.232001769795	19
0	97	27.5	18
0	98	27.5	17
0	102	28.253752131558	18
0	103	28.253752131558	19
0	104	29.020573410365	18
0	107	29.199761307853	19
0	108	29.199761307853	20
0	110	29.841766501301	21
0	111	29.841766501301	22
0	112	30	21
0	113	30	20
0	117	30.520647341656	21
0	118	30.520647341656	22
0	120	31.135117650851	23
0	121	31.135117650851	24
0	122	31.520573410365	23
0	125	32.204668385655	24
0	126	32.204668385655	25
0	127	32.5	24
0	128	32.5	23
0	132	32.590395516011	24
0	133	32.590395516011	25
0	135	33.848184756458	26
0	136	33.848184756458	27
0	137	34.020573410365	26
0	139	35	25
0	140	35	24
0	144	35.109298915974	25
0	145	35.109298915974	26
0	147	35.955974288037	27
0	148	35.955974288037	28
0	149	36.520573410365	27
0	152	36.770074789959	28
0	153	36.770074789959	29
0	154	37.5	28
0	155	37.5	27
0	159	38.018171640284	28
0	160	38.018171640284	29
0	162	38.686498284781	30
0	163	38.686498284781	31
0	164	39.020573410365	30
0	167	39.691244260445	31
0	168	39.691244260445	32
0	170	39.915571633353	33
0	171	39.915571633353	34
0	172	40	33
0	173	40	32
0	177	40.65587624502	33
0	178	40.65587624502	34
0	179	41.520573410365	33
0	182	41.839680522283	34
0	183	41.839680522283	35
0	185	42.197264586259	36
0	186	42.197264586259	37
0	188	42.380036356542	38
0	189	42.380036356542	39
0	190	42.5	38
0	191	42.5	37
0	195	43.825486067569	38
0	196	43.825486067569	39
0	197	44.020573410365	38
0	199	45	37
0	200	45	36
0	204	45.300148549101	37
0	205	45.300148549101	38
0	207	45.680265961186	39
0	208	45.680265961186	40
0	210	45.713529291156	41
0	211	45.713529291156	42
0	213	46.101014628566	43
0	214	46.101014628566	44
0	215	46.520573410365	43
0	218	47.29253584139	44
0	219	47.29253584139	45
0	220	47.5	44
0	221	47.5	43
0	225	48.304211633738	44
0	226	48.304211633738	45
0	227	49.020573410365	44
0	230	49.341404774681	45
0	231	49.341404774681	46
0	232	50	45
0	233	50	44
0	237	50.2547921557	45
0	238	50.2547921557	46
0	240	51.117993955618	47
0	241	51.117993955618	48
0	242	51.520573410365	47
0	245	51.796207743524	48
0	246	51.796207743524	49
0	247	52.5	48
0	248	52.5	47
0	252	52.54196959502	48
0	253	52.54196959502	49
0	254	54.020573410365	48
0	257	54.386275202596	49
0	258	54.386275202596	50
0	260	54.585647894295	51
0	261	54.585647894295	52
0	262	55	51
0	263	55	50
0	267	56.07843644942	51
0	268	56.07843644942	52
0	270	56.500883064313	53
0	271	56.500883064313	54
0	272	56.520573410365	53
0	275	56.807398476468	54
0	276	56.807398476468	55
0	278	57.350286235226	56
0	279	57.350286235226	57
0	280	57.5	56
0	281	57.5	55
0	285	58.454149574066	56
0	286	58.454149574066	57
0	287	59.020573410365	56
0	290	59.458919891905	57
0	291	59.458919891905	58
0	292	60	57
0	293	60	56
0	297	60.35641996733	57
0	298	60.35641996733	58
0	300	61.127340280292	59
0	301	61.127340280292	60
0	302	61.520573410365	59
0	305	62.460975226028	60
0	306	62.460975226028	61
0	307	62.5	60
0	308	62.5	59
0	312	63.493363767119	60
0	313	63.493363767119	61
0	315	63.612024324595	62
0	316	63.612024324595	63
0	317	64.020573410365	62
0	320	64.405940714062	63
0	321	64.405940714062	64
0	322	65	63
0	323	65	62
0	327	65.03869140344	63
0	328	65.03869140344	64
0	329	66.520573410365	63
0	332	66.539176528327	64
0	333	66.539176528327	65
0	335	66.879529476325	66
0	336	66.879529476325	67
0	337	67.5	66
0	338	67.5	65
0	342	67.724599664096	66
0	343	67.724599664096	67
0	344	69.020573410365	66
0	347	69.092895383322	67
0	348	69.092895383322	68
0	349	70	67
0	350	70	66
0	354	70.396550323395	67
0	355	70.396550323395	68
0	357	71.159782595301	69
0	358	71.159782595301	70
0	359	71.520573410365	69
0	362	71.529510595816	70
0	363	71.529510595816	71
0	365	71.959827596568	72
0	366	71.959827596568	73
0	367	72.5	72
0	368	72.5	71
0	372	73.191055145075	72
0	373	73.191055145075	73
0	375	73.270124195628	74
0	376	73.270124195628	75
0	377	74.020573410365	74
0	380	74.4284522313	75
0	381	74.4284522313	76
0	382	75	75
0	383	75	74
0	387	75.26469078927	75
0	388	75.26469078927	76
0	390	76.198624975084	77
0	391	76.198624975084	78
0	392	76.520573410365	77
0	394	77.5	76
0	395	77.5	75
0	399	77.748967913435	76
0	400	77.748967913435	77
0	401	79.020573410365	76
0	404	79.108200997344	77
0	405	79.108200997344	78
0	406	80	77
0	407	80	76
0	411	80.418704768348	77
0	412	80.418704768348	78
0	414	81.131323221736	79
0	415	81.131323221736	80
0	417	81.254980629472	81
0	418	81.254980629472	82
0	419	81.520573410365	81
0	422	82.416625634285	82
0	423	82.416625634285	83
0	424	82.5	82
0	425	82.5	81
0	429	83.156089295771	82
0	430	83.156089295771	83
0	431	84.020573410365	82
0	434	84.47305435491	83
0	435	84.47305435491	84
0	436	85	83
0	437	85	82
0	441	85.222946527444	83
0	442	85.222946527444	84
0	444	86.495909200862	85
0	445	86.495909200862	86
0	446	86.520573410365	85
0	449	87.414070896334	86
0	450	87.414070896334	87
0	451	87.5	86
0	452	87.5	85
0	456	88.482369184388	86
0	457	88.482369184388	87
0	458	89.020573410365	86
0	461	89.483360700642	87
0	462	89.483360700642	88
0	464	89.862408250059	89
0	465	89.862408250059	90
0	466	90	89
0	467	90	88
0	471	91.1750646115	89
0	472	91.1750646115	90
0	473	91.520573410365	89
0	475	92.5	88
0	476	92.5	87
0	480	92.933105600648	88
0	481	92.933105600648	89
0	483	94.00967347015	90
0	484	94.00967347015	91
0	485	94.020573410365	90
0	487	95	89
0	488	95	88
0	492	95.409991974919	89
0	493	95.409991974919	90
0	495	95.638081532817	91
0	496	95.638081532817	92
0	497	96.520573410365	91
0	499	97.5	90
0	500	97.5	89
0	504	97.507259094562	90
0	505	97.507259094562	91
0	507	98.185269215213	92
0	508	98.185269215213	93
0	510	98.886010539726	94
0	511	98.886010539726	95
0	512	99.020573410365	94
0	515	99.582858401206	95
0	516	99.582858401206	96
0	517	100	95
0	518	100	94
0	522	100.730658964969	95
0	523	100.730658964969	96
0	525	100.885555486648	97
0	526	100.885555486648	98
0	527	101.520573410365	97
0	529	102.5	96
0	530	102.5	95
0	534	102.766009872176	96
0	535	102.766009872176	97
0	537	104.020228376101	98
0	538	104.020228376101	99
0	539	104.020573410365	98
0	542	104.948163290152	99
0	543	104.948163290152	100
0	544	105	99
0	545	105	98
0	549	106.171677791469	99
0	550	106.171677791469	100
0	551	106.520573410365	99
0	554	107.202022377417	100
0	555	107.202022377417	101
0	556	107.5	100
0	557	107.5	99
0	561	108.039489276354	100
0	562	108.039489276354	101
0	564	108.905910786796	102
0	565	108.905910786796	103
0	566	109.020573410365	102
0	568	110	101
0	569	110	100
0	573	111.101751408718	101
0	574	111.101751408718	102
0	575	111.520573410365	101
0	577	112.5	100
0	578	112.5	99
0	582	112.859870896664	100
0	583	112.859870896664	101
0	585	113.501927318301	102
0	586	113.501927318301	103
0	587	114.020573410365	102
0	590	114.138344950581	103
0	591	114.138344950581	104
0	592	115	103
0	593	115	102
0	597	115.186689485545	103
0	598	115.186689485545	104
0	600	116.044334664368	105
0	601	116.044334664368	106
0	602	116.520573410365	105
0	605	117.448016653498	106
0	606	117.448016653498	107
0	607	117.5	106
0	608	117.5	105
0	612	117.78276303419	106
0	613	117.78276303419	107
0	614	119.020573410365	106
0	617	119.188093964287	107
0	618	119.188093964287	108
0	619	120	107
0	620	120	106
0	623	121.520573410365	105
0	626	121.559671330283	106
0	627	121.559671330283	107
0	628	122.5	106
0	629	122.5	105
0	633	122.830305208917	106
0	634	122.830305208917	107
0	636	123.637310574716	108
0	637	123.637310574716	109
0	638	124.020573410365	108
0	641	124.245036892651	109
0	642	124.245036892651	110
0	643	125	109
0	644	125	108
0	648	125.887370902218	109
0	649	125.887370902218	110
0	650	126.520573410365	109
0	652	127.5	108
0	653	127.5	107
0	657	127.922968355794	108
0	658	127.922968355794	109
0	660	128.287294559406	110
0	661	128.287294559406	111
0	662	129.020573410365	110
0	665	129.77117850551	111
0	666	129.77117850551	112
0	667	130	111
0	668	130	110
0	672	130.430873841214	111
0	673	130.430873841214	112
0	674	131.520573410365	111
0	677	132.352791955791	112
0	678	132.352791955791	113
0	679	132.5	112
0	680	132.5	111
0	684	133.015852550377	112
0	685	133.015852550377	113
0	687	133.1745324826	114
0	688	133.1745324826	115
0	690	133.904000948921	116
0	691	133.904000948921	117
0	692	134.020573410365	116
0	694	135	115
0	695	135	114
0	699	135.665065346515	115
0	700	135.665065346515	116
0	701	136.520573410365	115
0	704	137.012736225437	116
0	705	137.012736225437	117
0	706	137.5	116
0	707	137.5	115
0	711	137.808692852963	116
0	712	137.808692852963	117
0	713	139.020573410365	116
0	716	139.54237396673	117
0	717	139.54237396673	118
0	718	140	117
0	719	140	116
0	723	140.15513743472	117
0	724	140.15513743472	118
0	726	140.458963779862	119
0	727	140.458963779862	120
0	729	141.255357398858	121
0	730	141.255357398858	122
0	731	141.520573410365	121
0	733	142.5	120
0	734	142.5	119
0	738	142.62078602503	120
0	739	142.62078602503	121
0	741	143.711351897006	122
0	742	143.711351897006	123
0	743	144.020573410365	122
0	746	144.084122669241	123
0	747	144.084122669241	124
0	749	144.819094796514	125
0	750	144.819094796514	126
0	751	145	125
0	752	145	124
0	756	145.687733405431	125
0	757	145.687733405431	126
0	758	146.520573410365	125
0	761	146.572679983332	126
0	762	146.572679983332	127
0	764	146.7615138825	128
0	765	146.7615138825	129
0	766	147.5	128
0	767	147.5	127
0	771	148.353499405404	128
0	772	148.353499405404	129
0	773	149.020573410365	128
0	775	150	127
0	776	150	126
0	780	150.427186018263	127
0	781	150.427186018263	128
0	782	151.520573410365	127
0	785	151.962093368521	128
0	786	151.962093368521	129
0	787	152.5	128
0	788	152.5	127
0	792	152.930799172582	128
0	793	152.930799172582	129
0	795	153.868411059268	130
0	796	153.868411059268	131
0	797	154.020573410365	130
0	799	155	129
0	800	155	128
0	804	155.16026838627	129
0	805	155.16026838627	130
0	807	156.226310365035	131
0	808	156.226310365035	132
0	809	156.520573410365	131
0	812	157.283588225356	132
0	813	157.283588225356	133
0	814	157.5	132
0	815	157.5	131
0	819	157.962956040143	132
0	820	157.962956040143	133
0	821	159.020573410365	132
0	824	159.204699114512	133
0	825	159.204699114512	134
0	827	159.98949148291	135
0	828	159.98949148291	136
0	829	160	135
0	830	160	134
0	834	160.985929936713	135
0	835	160.985929936713	136
0	836	161.520573410365	135
0	839	161.959787364594	136
0	840	161.959787364594	137
0	841	162.5	136
0	842	162.5	135
0	846	162.690285672799	136
0	847	162.690285672799	137
0	849	163.950173184212	138
0	850	163.950173184212	139
0	851	164.020573410365	138
0	854	164.639839530759	139
0	855	164.639839530759	140
0	856	165	139
0	857	165	138
0	861	165.153598320833	139
0	862	165.153598320833	140
0	863	166.520573410365	139
0	866	167.030717404187	140
0	867	167.030717404187	141
0	868	167.5	140
0	869	167.5	139
0	873	168.014732667268	140
0	874	168.014732667268	141
0	876	168.585326051163	142
0	877	168.585326051163	143
0	879	168.955522385699	144
0	880	168.955522385699	145
0	881	169.020573410365	144
0	883	170	143
0	884	170	142
0	888	170.213898428905	143
0	889	170.213898428905	144
0	891	171.334552409896	145
0	892	171.334552409896	146
0	893	171.520573410365	145
0	895	172.5	144
0	896	172.5	143
0	900	172.539312899578	144
0	901	172.539312899578	145
0	903	172.586229234061	146
0	904	172.586229234061	147
0	906	173.481337869278	148
0	907	173.481337869278	149
0	908	174.020573410365	148
0	910	175	147
0	911	175	146
0	915	175.024414905492	147
0	916	175.024414905492	148
0	918	176.061554266829	149
0	919	176.061554266829	150
0	920	176.520573410365	149
0	923	176.614488044455	150
0	924	176.614488044455	151
0	925	177.5	150
0	926	177.5	149
0	930	177.88830575307	150
0	931	177.88830575307	151
0	932	179.020573410365	150
0	935	179.213239987803	151
0	936	179.213239987803	152
0	937	180	151
0	938	180	150
0	942	181.010497581325	151
0	943	181.010497581325	152
0	944	181.520573410365	151
0	947	181.738666582752	152
0	948	181.738666582752	153
0	950	182.421056954461	154
0	951	182.421056954461	155
0	952	182.5	154
0	953	182.5	153
0	957	182.576962020314	154
0	958	182.576962020314	155
0	960	182.767373898821	156
0	961	182.767373898821	157
0	962	184.020573410365	156
0	965	184.043125549415	157
0	966	184.043125549415	158
0	967	185	157
0	968	185	156
0	972	185.048187538365	157
0	973	185.048187538365	158
0	975	185.132604669921	159
0	976	185.132604669921	160
0	977	186.520573410365	159
0	979	187.5	158
0	980	187.5	157
0	984	187.689078704345	158
0	985	187.689078704345	159
0	986	189.020573410365	158
0	989	189.734965822553	159
0	990	189.734965822553	160
0	991	190	159
0	992	190	158
0	996	190.226629982437	159
0	997	190.226629982437	160
0	999	190.616583078318	161
0	1000	190.616583078318	162
0	1001	191.520573410365	161
0	1003	192.5	160
0	1004	192.5	159
0	1008	192.548637992481	160
0	1009	192.548637992481	161
0	1011	192.852926125863	162
0	1012	192.852926125863	163
0	1014	193.790485863565	164
0	1015	193.790485863565	165
0	1016	194.020573410365	164
0	1019	194.657161386129	165
0	1020	194.657161386129	166
0	1021	195	165
0	1022	195	164
0	1026	195.787860301169	165
0	1027	195.787860301169	166
0	1028	196.520573410365	165
0	1031	196.577021686629	166
0	1032	196.577021686629	167
0	1033	197.5	166
0	1034	197.5	165
0	1038	197.788283148939	166
0	1039	197.788283148939	167
0	1040	199.020573410365	166
0	1043	199.465025069865	167
0	1044	199.465025069865	168
0	1045	200	167
0	1046	200	166
0	1050	200.883579008651	167
0	1051	200.883579008651	168
0	1052	201.520573410365	167
0	1055	201.836058878716	168
0	1056	201.836058878716	169
0	1058	201.851664069175	170
0	1059	201.851664069175	171
0	1060	202.5	170
0	1061	202.5	169
0	1065	203.533077210816	170
0	1066	203.533077210816	171
0	1067	204.020573410365	170
0	1070	204.284367484541	171
0	1071	204.284367484541	172
0	1072	205	171
0	1073	205	170
0	1077	205.29570954091	171
0	1078	205.29570954091	172
0	1079	206.520573410365	171
0	1082	206.798279142544	172
0	1083	206.798279142544	173
0	1084	207.5	172
0	1085	207.5	171
0	1089	208.209610279214	172
0	1090	208.209610279214	173
0	1091	209.020573410365	172
0	1094	209.457761854848	173
0	1095	209.457761854848	174
0	1096	210	173
0	1097	210	172
0	1101	210.482879986073	173
0	1102	210.482879986073	174
0	1103	211.520573410365	173
0	1106	211.737378256542	174
0	1107	211.737378256542	175
0	1109	212.199588864013	176
0	1110	212.199588864013	177
0	1111	212.5	176
0	1112	212.5	175
0	1115	214.020573410365	174
0	1118	214.082710884939	175
0	1119	214.082710884939	176
0	1121	214.433010616623	177
0	1122	214.433010616623	178
0	1123	215	177
0	1124	215	176
0	1128	215.522127259239	177
0	1129	215.522127259239	178
0	1130	216.520573410365	177
0	1132	217.5	176
0	1133	217.5	175
0	1137	217.502933318081	176
0	1138	217.502933318081	177
0	1140	218.106723084853	178
0	1141	218.106723084853	179
0	1142	219.020573410365	178
0	1145	219.934964969531	179
0	1146	219.934964969531	180
0	1147	220	179
0	1148	220	178
0	1152	220.911183659262	179
0	1153	220.911183659262	180
0	1154	221.520573410365	179
0	1157	221.664880690047	180
0	1158	221.664880690047	181
0	1160	222.290545087413	182
0	1161	222.290545087413	183
0	1162	222.5	182
0	1163	222.5	181
0	1167	223.411385383487	182
0	1168	223.411385383487	183
0	1170	223.941970645057	184
0	1171	223.941970645057	185
0	1172	224.020573410365	184
0	1175	224.540577009522	185
0	1176	224.540577009522	186
0	1178	224.593406571148	187
0	1179	224.593406571148	188
0	1180	225	187
0	1181	225	186
0	1185	225.183361825662	187
0	1186	225.183361825662	188
0	1188	225.76607792175	189
0	1189	225.76607792175	190
0	1190	226.520573410365	189
0	1193	227.073401519149	190
0	1194	227.073401519149	191
0	1195	227.5	190
0	1196	227.5	189
0	1200	228.103539392265	190
0	1201	228.103539392265	191
0	1203	228.311380693853	192
0	1204	228.311380693853	193
0	1205	229.020573410365	192
0	1208	229.421939936455	193
0	1209	229.421939936455	194
0	1211	229.837295073597	195
0	1212	229.837295073597	196
0	1213	230	195
0	1214	230	194
0	1217	231.520573410365	193
0	1220	231.524621763722	194
0	1221	231.524621763722	195
0	1222	232.5	194
0	1223	232.5	193
0	1227	233.012366915642	194
0	1228	233.012366915642	195
0	1229	234.020573410365	194
0	1231	235	193
0	1232	235	192
0	1236	235.469970511876	193
0	1237	235.469970511876	194
0	1238	236.520573410365	193
0	1241	236.590239946031	194
0	1242	236.590239946031	195
0	1243	237.5	194
0	1244	237.5	193
0	1248	238.223217367097	194
0	1249	238.223217367097	195
0	1251	238.758598082508	196
0	1252	238.758598082508	197
0	1253	239.020573410365	196
0	1255	240	195
0	1256	240	194
0	1260	240.322293285451	195
0	1261	240.322293285451	196
0	1262	241.520573410365	195
0	1264	242.5	194
0	1265	242.5	193
0	1269	242.774126543671	194
0	1270	242.774126543671	195
0	1271	244.020573410365	194
0	1274	244.550795615657	195
0	1275	244.550795615657	196
0	1276	245	195
0	1277	245	194
0	1281	245.833775982788	195
0	1282	245.833775982788	196
0	1284	246.033151377418	197
0	1285	246.033151377418	198
0	1286	246.520573410365	197
0	1289	246.838237112246	198
0	1290	246.838237112246	199
0	1292	247.343209514082	200
0	1293	247.343209514082	201
0	1294	247.5	200
0	1295	247.5	199
0	1298	249.020573410365	198
0	1301	249.551984739741	199
0	1302	249.551984739741	200
0	1303	250	199
0	1304	250	198
0	1308	250.303402615063	199
0	1309	250.303402615063	200
0	1311	251.507194247432	201
0	1312	251.507194247432	202
0	1313	251.520573410365	201
0	1315	252.5	200
0	1316	252.5	199
0	1320	252.787780938466	200
0	1321	252.787780938466	201
0	1323	253.099191818461	202
0	1324	253.099191818461	203
0	1325	254.020573410365	202
0	1328	254.853595286421	203
0	1329	254.853595286421	204
0	1331	254.97796423627	205
0	1332	254.97796423627	206
0	1333	255	205
0	1334	255	204
0	1338	255.457976682133	205
0	1339	255.457976682133	206
0	1340	256.520573410365	205
0	1342	257.5	204
0	1343	257.5	203
0	1347	258.213662233113	204
0	1348	258.213662233113	205
0	1350	258.862519313803	206
0	1351	258.862519313803	207
0	1352	259.020573410365	206
0	1354	260	205
0	1355	260	204
0	1359	260.307367082114	205
0	1360	260.307367082114	206
0	1361	261.520573410365	205
0	1363	262.5	204
0	1364	262.5	203
0	1368	262.589759150536	204
0	1369	262.589759150536	205
0	1371	263.743704863633	206
0	1372	263.743704863633	207
0	1373	264.020573410365	206
0	1376	264.594981199646	207
0	1377	264.594981199646	208
0	1379	264.894047445388	209
0	1380	264.894047445388	210
0	1381	265	209
0	1382	265	208
0	1385	266.520573410365	207
0	1387	267.5	206
0	1388	267.5	205
0	1392	268.196698991549	206
0	1393	268.196698991549	207
0	1394	269.020573410365	206
0	1397	269.113294214793	207
0	1398	269.113294214793	208
0	1400	269.677512854954	209
0	1401	269.677512854954	210
0	1402	270	209
0	1403	270	208
0	1407	270.537884245186	209
0	1408	270.537884245186	210
0	1410	271.022713163962	211
0	1411	271.022713163962	212
0	1412	271.520573410365	211
0	1415	272.312667524201	212
0	1416	272.312667524201	213
0	1417	272.5	212
0	1418	272.5	211
0	1421	274.020573410365	210
0	1424	274.318867337096	211
0	1425	274.318867337096	212
0	1426	275	211
0	1427	275	210
0	1431	275.363907764208	211
0	1432	275.363907764208	212
0	1434	275.937281149396	213
0	1435	275.937281149396	214
0	1436	276.520573410365	213
0	1439	276.923129478157	214
0	1440	276.923129478157	215
0	1441	277.5	214
0	1442	277.5	213
0	1445	279.020573410365	212
0	1448	279.092470179109	213
0	1449	279.092470179109	214
0	1450	280	213
0	1451	280	212
0	1455	280.309743134647	213
0	1456	280.309743134647	214
0	1458	280.923168659225	215
0	1459	280.923168659225	216
0	1460	281.520573410365	215
0	1463	281.618811862007	216
0	1464	281.618811862007	217
0	1465	282.5	216
0	1466	282.5	215
0	1470	283.040500202312	216
0	1471	283.040500202312	217
0	1473	283.472095543195	218
0	1474	283.472095543195	219
0	1475	284.020573410365	218
0	1478	284.654370014485	219
0	1479	284.654370014485	220
0	1480	285	219
0	1481	285	218
0	1485	285.51615462568	219
0	1486	285.51615462568	220
0	1487	286.520573410365	219
0	1490	287.233894470154	220
0	1491	287.233894470154	221
0	1492	287.5	220
0	1493	287.5	219
0	1497	287.579947426903	220
0	1498	287.579947426903	221
0	1499	289.020573410365	220
0	1502	289.363571926773	221
0	1503	289.363571926773	222
0	1504	290	221
0	1505	290	220
0	1509	290.610170687107	221
0	1510	290.610170687107	222
0	1511	291.520573410365	221
0	1514	292.050839569586	222
0	1515	292.050839569586	223
0	1517	292.455997704995	224
0	1518	292.455997704995	225
0	1519	292.5	224
0	1520	292.5	223
0	1524	293.544699635375	224
0	1525	293.544699635375	225
0	1526	294.020573410365	224
0	1529	294.460422511171	225
0	1530	294.460422511171	226
0	1532	294.772352113572	227
0	1533	294.772352113572	228
0	1534	295	227
0	1535	295	226
0	1539	295.148166594459	227
0	1540	295.148166594459	228
0	1542	296.151565769519	229
0	1543	296.151565769519	230
0	1545	296.365163949508	231
0	1546	296.365163949508	232
0	1547	296.520573410365	231
0	1550	296.986642278566	232
0	1551	296.986642278566	233
0	1552	297.5	232
0	1553	297.5	231
0	1557	297.790979772589	232
0	1558	297.790979772589	233
0	1560	298.528847472963	234
0	1561	298.528847472963	235
0	1563	299.001223918762	236
0	1564	299.001223918762	237
0	1565	299.020573410365	236
0	1568	299.568954122014	237
0	1569	299.568954122014	238
0	1571	299.834443456296	239
0	1572	299.834443456296	240
0	1573	300	239
0	1574	300	238
0	1578	300.998779077646	239
0	1579	300.998779077646	240
0	1580	301.520573410365	239
0	1583	301.725877992581	240
0	1584	301.725877992581	241
0	1586	301.73807591909	242
0	1587	301.73807591909	243
0	1588	302.5	242
0	1589	302.5	241
0	1593	302.621340698962	242
0	1594	302.621340698962	243
0	1596	303.464274767096	244
0	1597	303.464274767096	245
0	1598	304.020573410365	244
0	1601	304.16228557224	245
0	1602	304.16228557224	246
0	1603	305	245
0	1604	305	244
0	1608	305.070949188282	245
0	1609	305.070949188282	246
0	1611	305.2595186207	247
0	1612	305.2595186207	248
0	1614	306.201404312843	249
0	1615	306.201404312843	250
0	1616	306.520573410365	249
0	1619	306.726826617877	250
0	1620	306.726826617877	251
0	1621	307.5	250
0	1622	307.5	249
0	1626	308.625129434798	250
0	1627	308.625129434798	251
0	1628	309.020573410365	250
0	1631	309.327370631311	251
0	1632	309.327370631311	252
0	1633	310	251
0	1634	310	250
0	1638	311.24572125612	251
0	1639	311.24572125612	252
0	1640	311.520573410365	251
0	1642	312.5	250
0	1643	312.5	249
0	1647	313.013403812797	250
0	1648	313.013403812797	251
0	1650	313.167388649222	252
0	1651	313.167388649222	253
0	1652	314.020573410365	252
0	1655	314.464324714538	253
0	1656	314.464324714538	254
0	1657	315	253
0	1658	315	252
0	1662	315.482122263881	253
0	1663	315.482122263881	254
0	1665	316.255295563275	255
0	1666	316.255295563275	256
0	1667	316.520573410365	255
0	1670	316.710757659654	256
0	1671	316.710757659654	257
0	1673	316.905434524783	258
0	1674	316.905434524783	259
0	1675	317.5	258
0	1676	317.5	257
0	1680	317.548623265553	258
0	1681	317.548623265553	259
0	1683	318.168541423716	260
0	1684	318.168541423716	261
0	1686	318.699816245606	262
0	1687	318.699816245606	263
0	1688	319.020573410365	262
0	1691	319.037953508146	263
0	1692	319.037953508146	264
0	1694	319.768382001872	265
0	1695	319.768382001872	266
0	1696	320	265
0	1697	320	264
0	1701	320.8734076221	265
0	1702	320.8734076221	266
0	1703	321.520573410365	265
0	1706	322.044873861731	266
0	1707	322.044873861731	267
0	1709	322.192502218518	268
0	1710	322.192502218518	269
0	1711	322.5	268
0	1712	322.5	267
0	1716	323.825232521052	268
0	1717	323.825232521052	269
0	1718	324.020573410365	268
0	1721	324.28851861681	269
0	1722	324.28851861681	270
0	1723	325	269
0	1724	325	268
0	1728	325.207519521801	269
0	1729	325.207519521801	270
0	1731	325.976891809581	271
0	1732	325.976891809581	272
0	1733	326.520573410365	271
0	1736	326.974747508313	272
0	1737	326.974747508313	273
0	1738	327.5	272
0	1739	327.5	271
0	1743	327.88909392338	272
0	1744	327.88909392338	273
0	1745	329.020573410365	272
0	1747	330	271
0	1748	330	270
0	1752	330.500153742633	271
0	1753	330.500153742633	272
0	1754	331.520573410365	271
0	1756	332.5	270
0	1757	332.5	269
0	1761	332.713915622762	270
0	1762	332.713915622762	271
0	1763	334.020573410365	270
0	1766	334.539400508417	271
0	1767	334.539400508417	272
0	1768	335	271
0	1769	335	270
0	1773	335.245905678066	271
0	1774	335.245905678066	272
0	1776	336.115164523151	273
0	1777	336.115164523151	274
0	1779	336.505326742633	275
0	1780	336.505326742633	276
0	1781	336.520573410365	275
0	1783	337.5	274
0	1784	337.5	273
0	1788	337.604662920577	274
0	1789	337.604662920577	275
0	1791	338.134034831796	276
0	1792	338.134034831796	277
0	1793	339.020573410365	276
0	1796	339.023539954514	277
0	1797	339.023539954514	278
0	1799	339.698421785336	279
0	1800	339.698421785336	280
0	1801	340	279
0	1802	340	278
0	1806	341.255462021052	279
0	1807	341.255462021052	280
0	1808	341.520573410365	279
0	1810	342.5	278
0	1811	342.5	277
0	1815	342.601830028161	278
0	1816	342.601830028161	279
0	1818	343.162431951521	280
0	1819	343.162431951521	281
0	1821	343.336653990413	282
0	1822	343.336653990413	283
0	1824	343.790236390859	284
0	1825	343.790236390859	285
0	1826	344.020573410365	284
0	1828	345	283
0	1829	345	282
0	1833	345.156503154372	283
0	1834	345.156503154372	284
0	1835	346.520573410365	283
0	1838	346.611298945313	284
0	1839	346.611298945313	285
0	1840	347.5	284
0	1841	347.5	283
0	1845	348.108431975434	284
0	1846	348.108431975434	285
0	1848	348.772157142746	286
0	1849	348.772157142746	287
0	1850	349.020573410365	286
0	1852	350	285
0	1853	350	284
0	1857	350.153722018208	285
0	1858	350.153722018208	286
0	1859	351.520573410365	285
0	1862	351.551064426805	286
0	1863	351.551064426805	287
0	1864	352.5	286
0	1865	352.5	285
0	1869	353.229665726292	286
0	1870	353.229665726292	287
0	1871	354.020573410365	286
0	1874	354.951459099962	287
0	1875	354.951459099962	288
0	1876	355	287
0	1877	355	286
0	1881	355.778670046758	287
0	1882	355.778670046758	288
0	1883	356.520573410365	287
0	1885	357.5	286
0	1886	357.5	285
0	1890	357.782065672892	286
0	1891	357.782065672892	287
0	1892	359.020573410365	286
0	1895	359.289283256794	287
0	1896	359.289283256794	288
0	1897	360	287
0	1898	360	286
0	1902	360.713052546507	287
0	1903	360.713052546507	288
0	1904	361.520573410365	287
0	1907	361.531124961943	288
0	1908	361.531124961943	289
0	1910	362.482662857309	290
0	1911	362.482662857309	291
0	1912	362.5	290
0	1913	362.5	289
0	1917	363.237574397535	290
0	1918	363.237574397535	291
0	1919	364.020573410365	290
0	1922	364.392726803886	291
0	1923	364.392726803886	292
0	1924	365	291
0	1925	365	290
0	1929	365.593845438837	291
0	1930	365.593845438837	292
0	1932	365.916119654261	293
0	1933	365.916119654261	294
0	1935	365.917911090754	295
0	1936	365.917911090754	296
0	1937	366.520573410365	295
0	1940	366.679882313727	296
0	1941	366.679882313727	297
0	1942	367.5	296
0	1943	367.5	295
0	1947	367.649514734277	296
0	1948	367.649514734277	297
0	1950	368.774111458383	298
0	1951	368.774111458383	299
0	1952	369.020573410365	298
0	1955	369.662045457781	299
0	1956	369.662045457781	300
0	1957	370	299
0	1958	370	298
0	1962	371.030515683281	299
0	1963	371.030515683281	300
0	1964	371.520573410365	299
0	1967	372.028751168555	300
0	1968	372.028751168555	301
0	1970	372.364170229388	302
0	1971	372.364170229388	303
0	1972	372.5	302
0	1973	372.5	301
0	1976	374.020573410365	300
0	1979	374.49183083322	301
0	1980	374.49183083322	302
0	1982	374.998976694853	303
0	1983	374.998976694853	304
0	1984	375	303
0	1985	375	302
0	1989	376.404001581105	303
0	1990	376.404001581105	304
0	1991	376.520573410365	303
0	1994	376.835086093138	304
0	1995	376.835086093138	305
0	1996	377.5	304
0	1997	377.5	303
0	2001	378.127159839367	304
0	2002	378.127159839367	305
0	2004	378.424458476551	306
0	2005	378.424458476551	307
0	2007	378.852841825984	308
0	2008	378.852841825984	309