version 3
run MMc-43-20221127-11:38:42-21264
attr configname MMc
attr datetime 20221127-11:38:42
attr datetimef 20221127-113842
attr experiment MMc
attr inifile omnetpp.ini
attr iterationvars "$mean=uniform(0.5s, 1.5s), $dev=0.5*(uniform(0.5s, 1.5s)), $time=2.5, $num=3, $0=33434, $1=56673, $2=23567"
attr iterationvarsd mean=uniform(0.5s,_1.5s)/dev=0.5#2a(uniform(0.5s,_1.5s))/time=2.5/num=3/33434/56673/23567
attr iterationvarsf mean=uniform(0.5s,_1.5s),dev=0.5#2a(uniform(0.5s,_1.5s)),time=2.5,num=3,33434,56673,23567-
attr measurement "$mean=uniform(0.5s, 1.5s), $dev=0.5*(uniform(0.5s, 1.5s)), $time=2.5, $num=3, $0=33434, $1=56673, $2=23567"
attr network MMc
attr processid 21264
attr repetition 3
attr replication #3
attr resultdir results
attr runnumber 43
attr seedset 43
itervar dev "0.5*(uniform(0.5s, 1.5s))"
itervar mean "uniform(0.5s, 1.5s)"
itervar num 3
itervar time 2.5
config description "MMc module"
config network MMc
config MMc.source.interArrivalTime "truncnormal(uniform(0.5s, 1.5s), 0.5*(uniform(0.5s, 1.5s)))"
config MMc.mmc.serviceTime 2.5s
config MMc.mmc.c 3
config MMc.mmc.capacity 10000
config record-eventlog false
config **.scalar-recording true
config **.vector-recording true
config repeat 4
config seed-1-mt 33434
config seed-2-mt 56673
config seed-3-mt 23567
config output-vector-file MMc-3-2.5-results/3.vec
config output-scalar-file MMc-3-2.5-results/3.sca

vector 0 MMc.mmc queueLength:vector ETV
attr interpolationmode none
attr recordingmode vector
attr title "queue length"
vector 1 MMc.mmc util:vector ETV
attr interpolationmode none
attr recordingmode vector
attr title resources
0	0	0	0
0	6	11.16027184278	1
0	8	11.906767638943	2
0	9	11.906767638943	3
0	10	12.5	2
0	11	12.5	1
0	14	13.66027184278	0
0	17	13.891255734005	1
0	18	13.891255734005	2
0	20	14.798161170732	3
0	21	14.798161170732	4
0	22	15	3
0	23	15	2
0	27	15.323759257029	3
0	28	15.323759257029	4
0	29	16.16027184278	3
0	32	16.79982683638	4
0	33	16.79982683638	5
0	34	17.5	4
0	35	17.5	3
0	39	17.71326253179	4
0	40	17.71326253179	5
0	41	18.66027184278	4
0	44	18.860074567592	5
0	45	18.860074567592	6
0	47	19.994915511973	7
0	48	19.994915511973	8
0	49	20	7
0	50	20	6
0	54	20.06697391431	7
0	55	20.06697391431	8
0	57	20.186517410315	9
0	58	20.186517410315	10
0	60	20.398862308685	11
0	61	20.398862308685	12
0	62	21.16027184278	11
0	65	21.585024268262	12
0	66	21.585024268262	13
0	67	22.5	12
0	68	22.5	11
0	72	23.07008916086	12
0	73	23.07008916086	13
0	74	23.66027184278	12
0	77	23.795269117576	13
0	78	23.795269117576	14
0	79	25	13
0	80	25	12
0	84	25.081457517366	13
0	85	25.081457517366	14
0	87	25.487691936401	15
0	88	25.487691936401	16
0	89	26.16027184278	15
0	91	27.5	14
0	92	27.5	13
0	96	28.365191754207	14
0	97	28.365191754207	15
0	98	28.66027184278	14
0	101	29.613703215494	15
0	102	29.613703215494	16
0	103	30	15
0	104	30	14
0	107	31.16027184278	13
0	110	31.308034352105	14
0	111	31.308034352105	15
0	113	31.46594414577	16
0	114	31.46594414577	17
0	115	32.5	16
0	116	32.5	15
0	120	33.112885534974	16
0	121	33.112885534974	17
0	122	33.66027184278	16
0	125	34.898950371069	17
0	126	34.898950371069	18
0	127	35	17
0	128	35	16
0	131	36.16027184278	15
0	134	36.181318822686	16
0	135	36.181318822686	17
0	137	37.374947050537	18
0	138	37.374947050537	19
0	139	37.5	18
0	140	37.5	17
0	144	38.435314302018	18
0	145	38.435314302018	19
0	146	38.66027184278	18
0	149	38.701650485155	19
0	150	38.701650485155	20
0	152	39.222907898146	21
0	153	39.222907898146	22
0	154	40	21
0	155	40	20
0	158	41.16027184278	19
0	161	41.302533940258	20
0	162	41.302533940258	21
0	163	42.5	20
0	164	42.5	19
0	168	42.512394097249	20
0	169	42.512394097249	21
0	171	43.377603391501	22
0	172	43.377603391501	23
0	173	43.66027184278	22
0	176	44.866894533303	23
0	177	44.866894533303	24
0	178	45	23
0	179	45	22
0	183	46.087325644639	23
0	184	46.087325644639	24
0	185	46.16027184278	23
0	188	46.880247648946	24
0	189	46.880247648946	25
0	190	47.5	24
0	191	47.5	23
0	195	48.318109631696	24
0	196	48.318109631696	25
0	197	48.66027184278	24
0	199	50	23
0	200	50	22
0	204	50.26881150781	23
0	205	50.26881150781	24
0	206	51.16027184278	23
0	209	51.344424384147	24
0	210	51.344424384147	25
0	211	52.5	24
0	212	52.5	23
0	216	53.477143557756	24
0	217	53.477143557756	25
0	218	53.66027184278	24
0	220	55	23
0	221	55	22
0	225	55.05845980775	23
0	226	55.05845980775	24
0	228	55.26911291001	25
0	229	55.26911291001	26
0	230	56.16027184278	25
0	233	56.871183933753	26
0	234	56.871183933753	27
0	235	57.5	26
0	236	57.5	25
0	240	57.68870124179	26
0	241	57.68870124179	27
0	243	58.315290314548	28
0	244	58.315290314548	29
0	245	58.66027184278	28
0	248	59.642832943482	29
0	249	59.642832943482	30
0	250	60	29
0	251	60	28
0	254	61.16027184278	27
0	257	61.339432718078	28
0	258	61.339432718078	29
0	260	62.124733545658	30
0	261	62.124733545658	31
0	262	62.5	30
0	263	62.5	29
0	267	62.971668713156	30
0	268	62.971668713156	31
0	269	63.66027184278	30
0	272	64.098942445191	31
0	273	64.098942445191	32
0	275	64.874621223145	33
0	276	64.874621223145	34
0	277	65	33
0	278	65	32
0	282	65.724499323651	33
0	283	65.724499323651	34
0	284	66.16027184278	33
0	287	67.0608404105	34
0	288	67.0608404105	35
0	289	67.5	34
0	290	67.5	33
0	293	68.66027184278	32
0	296	69.26701286531	33
0	297	69.26701286531	34
0	298	70	33
0	299	70	32
0	303	70.089000275588	33
0	304	70.089000275588	34
0	305	71.16027184278	33
0	308	71.497356826804	34
0	309	71.497356826804	35
0	311	71.905576348388	36
0	312	71.905576348388	37
0	314	72.187591857811	38
0	315	72.187591857811	39
0	316	72.5	38
0	317	72.5	37
0	321	72.638377891404	38
0	322	72.638377891404	39
0	324	73.466927279131	40
0	325	73.466927279131	41
0	326	73.66027184278	40
0	329	74.620690408556	41
0	330	74.620690408556	42
0	331	75	41
0	332	75	40
0	336	75.549831830998	41
0	337	75.549831830998	42
0	338	76.16027184278	41
0	341	76.343595467524	42
0	342	76.343595467524	43
0	343	77.5	42
0	344	77.5	41
0	348	77.732476405495	42
0	349	77.732476405495	43
0	350	78.66027184278	42
0	353	79.102876902601	43
0	354	79.102876902601	44
0	355	80	43
0	356	80	42
0	360	80.248949181739	43
0	361	80.248949181739	44
0	363	80.974014046252	45
0	364	80.974014046252	46
0	365	81.16027184278	45
0	368	81.492757868525	46
0	369	81.492757868525	47
0	371	82.167831759135	48
0	372	82.167831759135	49
0	373	82.5	48
0	374	82.5	47
0	378	82.800640308148	48
0	379	82.800640308148	49
0	381	83.514779641824	50
0	382	83.514779641824	51
0	383	83.66027184278	50
0	386	84.697208533369	51
0	387	84.697208533369	52
0	388	85	51
0	389	85	50
0	393	85.385471701844	51
0	394	85.385471701844	52
0	395	86.16027184278	51
0	398	87.305510855413	52
0	399	87.305510855413	53
0	400	87.5	52
0	401	87.5	51
0	404	88.66027184278	50
0	407	88.67334540196	51
0	408	88.67334540196	52
0	410	89.338749569954	53
0	411	89.338749569954	54
0	412	90	53
0	413	90	52
0	417	90.159284955044	53
0	418	90.159284955044	54
0	420	90.856841001988	55
0	421	90.856841001988	56
0	422	91.16027184278	55
0	425	91.857522027379	56
0	426	91.857522027379	57
0	427	92.5	56
0	428	92.5	55
0	432	93.392329413751	56
0	433	93.392329413751	57
0	434	93.66027184278	56
0	437	94.06597279221	57
0	438	94.06597279221	58
0	440	94.955104252407	59
0	441	94.955104252407	60
0	442	95	59
0	443	95	58
0	447	96.016357029393	59
0	448	96.016357029393	60
0	449	96.16027184278	59
0	452	96.49356888229	60
0	453	96.49356888229	61
0	454	97.5	60
0	455	97.5	59
0	459	98.109998207146	60
0	460	98.109998207146	61
0	462	98.570272522317	62
0	463	98.570272522317	63
0	464	98.66027184278	62
0	466	100	61
0	467	100	60
0	471	100.009262826303	61
0	472	100.009262826303	62
0	473	101.16027184278	61
0	476	101.793210728579	62
0	477	101.793210728579	63
0	478	102.5	62
0	479	102.5	61
0	483	102.715732739103	62
0	484	102.715732739103	63
0	485	103.66027184278	62
0	488	104.082905800376	63
0	489	104.082905800376	64
0	490	105	63
0	491	105	62
0	495	105.746136395092	63
0	496	105.746136395092	64
0	497	106.16027184278	63
0	500	106.7624070112	64
0	501	106.7624070112	65
0	502	107.5	64
0	503	107.5	63
0	507	107.655065132094	64
0	508	107.655065132094	65
0	509	108.66027184278	64
0	512	108.87522932458	65
0	513	108.87522932458	66
0	514	110	65
0	515	110	64
0	519	110.662443420174	65
0	520	110.662443420174	66
0	521	111.16027184278	65
0	524	111.765194000605	66
0	525	111.765194000605	67
0	526	112.5	66
0	527	112.5	65
0	531	112.963882165932	66
0	532	112.963882165932	67
0	534	113.323888881204	68
0	535	113.323888881204	69
0	536	113.66027184278	68
0	539	114.707841434918	69
0	540	114.707841434918	70
0	541	115	69
0	542	115	68
0	546	115.404358622879	69
0	547	115.404358622879	70
0	549	115.424252459283	71
0	550	115.424252459283	72
0	551	116.16027184278	71
0	554	116.206716967841	72
0	555	116.206716967841	73
0	556	117.5	72
0	557	117.5	71
0	561	117.685922411343	72
0	562	117.685922411343	73
0	564	118.390760153558	74
0	565	118.390760153558	75
0	567	118.648882727265	76
0	568	118.648882727265	77
0	569	118.66027184278	76
0	572	119.514155560172	77
0	573	119.514155560172	78
0	575	119.722594747198	79
0	576	119.722594747198	80
0	577	120	79
0	578	120	78
0	582	120.489656551989	79
0	583	120.489656551989	80
0	584	121.16027184278	79
0	587	121.284416326161	80
0	588	121.284416326161	81
0	590	122.145147065106	82
0	591	122.145147065106	83
0	592	122.5	82
0	593	122.5	81
0	597	122.800705335061	82
0	598	122.800705335061	83
0	600	123.64647942897	84
0	601	123.64647942897	85
0	602	123.66027184278	84
0	605	124.698542230291	85
0	606	124.698542230291	86
0	607	125	85
0	608	125	84
0	611	126.16027184278	83
0	614	126.904974935129	84
0	615	126.904974935129	85
0	616	127.5	84
0	617	127.5	83
0	621	128.463394855778	84
0	622	128.463394855778	85
0	623	128.66027184278	84
0	626	129.660645257107	85
0	627	129.660645257107	86
0	628	130	85
0	629	130	84
0	633	131.034641414438	85
0	634	131.034641414438	86
0	635	131.16027184278	85
0	638	131.40046179638	86
0	639	131.40046179638	87
0	640	132.5	86
0	641	132.5	85
0	645	132.670324144427	86
0	646	132.670324144427	87
0	648	133.537477235708	88
0	649	133.537477235708	89
0	650	133.66027184278	88
0	653	134.77007225959	89
0	654	134.77007225959	90
0	656	134.91819140457	91
0	657	134.91819140457	92
0	658	135	91
0	659	135	90
0	663	135.852207115289	91
0	664	135.852207115289	92
0	665	136.16027184278	91
0	668	137.177008566192	92
0	669	137.177008566192	93
0	670	137.5	92
0	671	137.5	91
0	675	138.628601878609	92
0	676	138.628601878609	93
0	677	138.66027184278	92
0	680	139.68155785229	93
0	681	139.68155785229	94
0	682	140	93
0	683	140	92
0	687	140.202679098761	93
0	688	140.202679098761	94
0	690	140.88166740781	95
0	691	140.88166740781	96
0	692	141.16027184278	95
0	695	141.363713429314	96
0	696	141.363713429314	97
0	697	142.5	96
0	698	142.5	95
0	702	142.92339105045	96
0	703	142.92339105045	97
0	704	143.66027184278	96
0	707	143.908898508674	97
0	708	143.908898508674	98
0	709	145	97
0	710	145	96
0	714	145.251787048522	97
0	715	145.251787048522	98
0	716	146.16027184278	97
0	719	146.203470022375	98
0	720	146.203470022375	99
0	722	146.766783959229	100
0	723	146.766783959229	101
0	725	146.869232991256	102
0	726	146.869232991256	103
0	727	147.5	102
0	728	147.5	101
0	732	147.899778462712	102
0	733	147.899778462712	103
0	734	148.66027184278	102
0	737	149.766444203308	103
0	738	149.766444203308	104
0	739	150	103
0	740	150	102
0	744	151.139329772321	103
0	745	151.139329772321	104
0	746	151.16027184278	103
0	748	152.5	102
0	749	152.5	101
0	753	152.567228786067	102
0	754	152.567228786067	103
0	755	153.66027184278	102
0	758	154.374292871246	103
0	759	154.374292871246	104
0	760	155	103
0	761	155	102
0	765	155.961869730131	103
0	766	155.961869730131	104
0	767	156.16027184278	103
0	770	157.336119058321	104
0	771	157.336119058321	105
0	772	157.5	104
0	773	157.5	103
0	776	158.66027184278	102
0	779	158.702587479352	103
0	780	158.702587479352	104
0	782	159.690123914822	105
0	783	159.690123914822	106
0	784	160	105
0	785	160	104
0	789	161.046267548343	105
0	790	161.046267548343	106
0	791	161.16027184278	105
0	793	162.5	104
0	794	162.5	103
0	798	163.228689503247	104
0	799	163.228689503247	105
0	801	163.326126299664	106
0	802	163.326126299664	107
0	803	163.66027184278	106
0	806	164.73275876688	107
0	807	164.73275876688	108
0	808	165	107
0	809	165	106
0	813	165.342214840731	107
0	814	165.342214840731	108
0	815	166.16027184278	107
0	818	167.249206054102	108
0	819	167.249206054102	109
0	820	167.5	108
0	821	167.5	107
0	825	167.801773667244	108
0	826	167.801773667244	109
0	827	168.66027184278	108
0	830	169.560965332339	109
0	831	169.560965332339	110
0	832	170	109
0	833	170	108
0	837	170.746798915025	109
0	838	170.746798915025	110
0	839	171.16027184278	109
0	842	172.433916925912	110
0	843	172.433916925912	111
0	844	172.5	110
0	845	172.5	109
0	848	173.66027184278	108
0	851	174.159066512997	109
0	852	174.159066512997	110
0	853	175	109
0	854	175	108
0	858	175.298605942581	109
0	859	175.298605942581	110
0	860	176.16027184278	109
0	863	176.400591490764	110
0	864	176.400591490764	111
0	865	177.5	110
0	866	177.5	109
0	870	178.53433905749	110
0	871	178.53433905749	111
0	872	178.66027184278	110
0	875	179.310353764796	111
0	876	179.310353764796	112
0	878	179.750641843622	113
0	879	179.750641843622	114
0	880	180	113
0	881	180	112
0	885	181.01238792326	113
0	886	181.01238792326	114
0	887	181.16027184278	113
0	889	182.5	112
0	890	182.5	111
0	894	182.538247830073	112
0	895	182.538247830073	113
0	897	183.007155644286	114
0	898	183.007155644286	115
0	899	183.66027184278	114
0	901	185	113
0	902	185	112
0	906	185.754492637604	113
0	907	185.754492637604	114
0	908	186.16027184278	113
0	910	187.5	112
0	911	187.5	111
0	915	187.74628032744	112
0	916	187.74628032744	113
0	917	188.66027184278	112
0	920	189.159515199242	113
0	921	189.159515199242	114
0	922	190	113
0	923	190	112
0	927	190.135474137003	113
0	928	190.135474137003	114
0	930	190.785245976721	115
0	931	190.785245976721	116
0	932	191.16027184278	115
0	935	192.416700505092	116
0	936	192.416700505092	117
0	937	192.5	116
0	938	192.5	115
0	942	192.574229021735	116
0	943	192.574229021735	117
0	945	192.783024457969	118
0	946	192.783024457969	119
0	947	193.66027184278	118
0	950	193.849177151362	119
0	951	193.849177151362	120
0	953	194.485298562344	121
0	954	194.485298562344	122
0	955	195	121
0	956	195	120
0	960	195.256353438663	121
0	961	195.256353438663	122
0	963	196.053029708318	123
0	964	196.053029708318	124
0	965	196.16027184278	123
0	968	197.147709337355	124
0	969	197.147709337355	125
0	970	197.5	124
0	971	197.5	123
0	975	198.062250071938	124
0	976	198.062250071938	125
0	977	198.66027184278	124
0	980	199.041951631	125
0	981	199.041951631	126
0	982	200	125
0	983	200	124
0	987	200.552636861368	125
0	988	200.552636861368	126
0	989	201.16027184278	125
0	992	201.223278050264	126
0	993	201.223278050264	127
0	995	201.584035579537	128
0	996	201.584035579537	129
0	998	201.919189319339	130
0	999	201.919189319339	131
0	1001	202.466903106336	132
0	1002	202.466903106336	133
0	1003	202.5	132
0	1004	202.5	131
0	1008	203.489410561027	132
0	1009	203.489410561027	133
0	1010	203.66027184278	132
0	1013	204.597761149961	133
0	1014	204.597761149961	134
0	1015	205	133
0	1016	205	132
0	1020	205.451088707398	133
0	1021	205.451088707398	134
0	1022	206.16027184278	133
0	1025	207.09209218823	134
0	1026	207.09209218823	135
0	1027	207.5	134
0	1028	207.5	133
0	1032	207.569057938142	134
0	1033	207.569057938142	135
0	1035	208.085233705656	136
0	1036	208.085233705656	137
0	1037	208.66027184278	136
0	1040	208.856433259448	137
0	1041	208.856433259448	138
0	1042	210	137
0	1043	210	136
0	1047	211.131814040422	137
0	1048	211.131814040422	138
0	1049	211.16027184278	137
0	1052	211.61344751814	138
0	1053	211.61344751814	139
0	1054	212.5	138
0	1055	212.5	137
0	1059	212.789836133831	138
0	1060	212.789836133831	139
0	1061	213.66027184278	138
0	1064	214.604436682566	139
0	1065	214.604436682566	140
0	1066	215	139
0	1067	215	138
0	1071	215.307413247725	139
0	1072	215.307413247725	140
0	1074	215.682445439003	141
0	1075	215.682445439003	142
0	1076	216.16027184278	141
0	1079	217.488765811988	142
0	1080	217.488765811988	143
0	1081	217.5	142
0	1082	217.5	141
0	1085	218.66027184278	140
0	1088	219.47660893959	141
0	1089	219.47660893959	142
0	1091	219.667761841183	143
0	1092	219.667761841183	144
0	1093	220	143
0	1094	220	142
0	1098	220.353832239131	143
0	1099	220.353832239131	144
0	1101	220.915822944407	145
0	1102	220.915822944407	146
0	1103	221.16027184278	145
0	1106	221.946053929908	146
0	1107	221.946053929908	147
0	1109	222.486218322835	148
0	1110	222.486218322835	149
0	1111	222.5	148
0	1112	222.5	147
0	1116	222.723623450504	148
0	1117	222.723623450504	149
0	1119	223.630560920123	150
0	1120	223.630560920123	151
0	1121	223.66027184278	150
0	1124	224.886123168531	151
0	1125	224.886123168531	152
0	1126	225	151
0	1127	225	150
0	1130	226.16027184278	149
0	1133	226.644901179109	150
0	1134	226.644901179109	151
0	1136	227.067715817696	152
0	1137	227.067715817696	153
0	1138	227.5	152
0	1139	227.5	151
0	1143	228.602697702551	152
0	1144	228.602697702551	153
0	1145	228.66027184278	152
0	1147	230	151
0	1148	230	150
0	1152	230.812496351965	151
0	1153	230.812496351965	152
0	1155	230.858698225349	153
0	1156	230.858698225349	154
0	1157	231.16027184278	153
0	1160	232.466890166988	154
0	1161	232.466890166988	155
0	1162	232.5	154
0	1163	232.5	153
0	1167	232.577866478697	154
0	1168	232.577866478697	155
0	1170	233.442697649757	156
0	1171	233.442697649757	157
0	1172	233.66027184278	156
0	1175	234.948432365954	157
0	1176	234.948432365954	158
0	1177	235	157
0	1178	235	156
0	1182	235.950686181333	157
0	1183	235.950686181333	158
0	1184	236.16027184278	157
0	1187	237.266509448305	158
0	1188	237.266509448305	159
0	1190	237.270265427049	160
0	1191	237.270265427049	161
0	1192	237.5	160
0	1193	237.5	159
0	1197	238.611436484013	160
0	1198	238.611436484013	161
0	1199	238.66027184278	160
0	1201	240	159
0	1202	240	158
0	1206	240.239576442685	159
0	1207	240.239576442685	160
0	1208	241.16027184278	159
0	1211	241.375158830537	160
0	1212	241.375158830537	161
0	1214	242.49356343574	162
0	1215	242.49356343574	163
0	1216	242.5	162
0	1217	242.5	161
0	1220	243.66027184278	160
0	1223	243.783618916582	161
0	1224	243.783618916582	162
0	1225	245	161
0	1226	245	160
0	1230	245.272253931616	161
0	1231	245.272253931616	162
0	1233	246.016513938322	163
0	1234	246.016513938322	164
0	1235	246.16027184278	163
0	1238	247.12607032998	164
0	1239	247.12607032998	165
0	1240	247.5	164
0	1241	247.5	163
0	1245	248.223764417661	164
0	1246	248.223764417661	165
0	1247	248.66027184278	164
0	1250	249.839577373946	165
0	1251	249.839577373946	166
0	1252	250	165
0	1253	250	164
0	1257	251.14743641938	165
0	1258	251.14743641938	166
0	1259	251.16027184278	165
0	1262	251.495075800976	166
0	1263	251.495075800976	167
0	1264	252.5	166
0	1265	252.5	165
0	1269	252.927395633712	166
0	1270	252.927395633712	167
0	1271	253.66027184278	166
0	1274	253.891867700346	167
0	1275	253.891867700346	168
0	1276	255	167
0	1277	255	166
0	1281	255.692839776417	167
0	1282	255.692839776417	168
0	1283	256.16027184278	167
0	1286	256.95724104795	168
0	1287	256.95724104795	169
0	1288	257.5	168
0	1289	257.5	167
0	1293	257.9777406359	168
0	1294	257.9777406359	169
0	1296	258.253086235491	170
0	1297	258.253086235491	171
0	1298	258.66027184278	170
0	1300	260	169
0	1301	260	168
0	1305	260.496093687632	169
0	1306	260.496093687632	170
0	1307	261.16027184278	169
0	1309	262.5	168
0	1310	262.5	167
0	1314	262.943227795173	168
0	1315	262.943227795173	169
0	1317	263.576551534735	170
0	1318	263.576551534735	171
0	1319	263.66027184278	170
0	1322	264.603538241938	171
0	1323	264.603538241938	172
0	1324	265	171
0	1325	265	170
0	1329	265.529572011956	171
0	1330	265.529572011956	172
0	1331	266.16027184278	171
0	1334	266.621172905503	172
0	1335	266.621172905503	173
0	1337	267.351310233429	174
0	1338	267.351310233429	175
0	1339	267.5	174
0	1340	267.5	173
0	1344	268.533527992955	174
0	1345	268.533527992955	175
0	1346	268.66027184278	174
0	1349	269.790151823364	175
0	1350	269.790151823364	176
0	1351	270	175
0	1352	270	174
0	1356	270.673859011781	175
0	1357	270.673859011781	176
0	1358	271.16027184278	175
0	1361	271.812202100116	176
0	1362	271.812202100116	177
0	1363	272.5	176
0	1364	272.5	175
0	1368	272.528127835804	176
0	1369	272.528127835804	177
0	1371	273.149309502924	178
0	1372	273.149309502924	179
0	1373	273.66027184278	178
0	1376	274.34998783028	179
0	1377	274.34998783028	180
0	1378	275	179
0	1379	275	178
0	1383	275.074266499879	179
0	1384	275.074266499879	180
0	1385	276.16027184278	179
0	1388	276.529013326542	180
0	1389	276.529013326542	181
0	1390	277.5	180
0	1391	277.5	179
0	1395	278.06642842408	180
0	1396	278.06642842408	181
0	1397	278.66027184278	180
0	1400	278.886212784128	181
0	1401	278.886212784128	182
0	1403	279.324923745834	183
0	1404	279.324923745834	184
0	1405	280	183
0	1406	280	182
0	1410	280.572602772156	183
0	1411	280.572602772156	184
0	1412	281.16027184278	183
0	1415	281.624632882363	184
0	1416	281.624632882363	185
0	1417	282.5	184
0	1418	282.5	183
0	1422	282.734853279416	184
0	1423	282.734853279416	185
0	1424	283.66027184278	184
0	1427	284.124658478252	185
0	1428	284.124658478252	186
0	1430	284.202928567185	187
0	1431	284.202928567185	188
0	1432	285	187
0	1433	285	186
0	1437	285.741807983383	187
0	1438	285.741807983383	188
0	1439	286.16027184278	187
0	1442	286.172665894016	188
0	1443	286.172665894016	189
0	1445	286.767973394831	190
0	1446	286.767973394831	191
0	1448	287.008485294723	192
0	1449	287.008485294723	193
0	1450	287.5	192
0	1451	287.5	191
0	1455	287.814590255967	192
0	1456	287.814590255967	193
0	1457	288.66027184278	192
0	1460	289.198800236908	193
0	1461	289.198800236908	194
0	1462	290	193
0	1463	290	192
0	1467	290.249038716793	193
0	1468	290.249038716793	194
0	1469	291.16027184278	193
0	1472	291.992214136803	194
0	1473	291.992214136803	195
0	1474	292.5	194
0	1475	292.5	193
0	1479	292.963085740131	194
0	1480	292.963085740131	195
0	1481	293.66027184278	194
0	1484	294.039063433695	195
0	1485	294.039063433695	196
0	1486	295	195
0	1487	295	194
0	1490	296.16027184278	193
0	1493	296.842543992825	194
0	1494	296.842543992825	195
0	1496	297.06983458221	196
0	1497	297.06983458221	197
0	1498	297.5	196
0	1499	297.5	195
0	1503	298.392146899828	196
0	1504	298.392146899828	197
0	1505	298.66027184278	196
0	1507	300	195
0	1508	300	194
0	1512	300.010912781793	195
0	1513	300.010912781793	196
0	1515	300.543318115219	197
0	1516	300.543318115219	198
0	1517	301.16027184278	197
0	1519	302.5	196
0	1520	302.5	195
0	1524	302.635737447366	196
0	1525	302.635737447366	197
0	1526	303.66027184278	196
0	1529	303.877752697689	197
0	1530	303.877752697689	198
0	1531	305	197
0	1532	305	196
0	1536	305.014863015413	197
0	1537	305.014863015413	198
0	1539	306.082792166076	199
0	1540	306.082792166076	200
0	1541	306.16027184278	199
0	1544	307.267659726728	200
0	1545	307.267659726728	201
0	1547	307.388944395759	202
0	1548	307.388944395759	203
0	1549	307.5	202
0	1550	307.5	201
0	1554	308.337971892628	202
0	1555	308.337971892628	203
0	1556	308.66027184278	202
0	1559	308.742866911144	203
0	1560	308.742866911144	204
0	1561	310	203
0	1562	310	202
0	1566	310.739583333136	203
0	1567	310.739583333136	204
0	1568	311.16027184278	203
0	1571	312.483797661906	204
0	1572	312.483797661906	205
0	1573	312.5	204
0	1574	312.5	203
0	1577	313.66027184278	202
0	1580	314.05311313156	203
0	1581	314.05311313156	204
0	1583	314.633171626201	205
0	1584	314.633171626201	206
0	1585	315	205
0	1586	315	204
0	1589	316.16027184278	203
0	1592	316.487795631032	204
0	1593	316.487795631032	205
0	1595	317.00816407016	206
0	1596	317.00816407016	207
0	1598	317.424352444886	208
0	1599	317.424352444886	209
0	1600	317.5	208
0	1601	317.5	207
0	1604	318.66027184278	206
0	1607	318.793753940461	207
0	1608	318.793753940461	208
0	1610	319.532411277269	209
0	1611	319.532411277269	210
0	1613	319.990757133933	211
0	1614	319.990757133933	212
0	1615	320	211
0	1616	320	210
0	1620	320.529331638056	211
0	1621	320.529331638056	212
0	1622	321.16027184278	211
0	1625	321.684337219094	212
0	1626	321.684337219094	213
0	1627	322.5	212
0	1628	322.5	211
0	1632	322.564151101342	212
0	1633	322.564151101342	213
0	1634	323.66027184278	212
0	1637	323.688547608093	213
0	1638	323.688547608093	214
0	1640	323.736934552885	215
0	1641	323.736934552885	216
0	1643	324.900470508697	217
0	1644	324.900470508697	218
0	1645	325	217
0	1646	325	216
0	1649	326.16027184278	215
0	1652	326.350444004861	216
0	1653	326.350444004861	217
0	1654	327.5	216
0	1655	327.5	215
0	1659	327.730130721899	216
0	1660	327.730130721899	217
0	1662	328.293147694091	218
0	1663	328.293147694091	219
0	1664	328.66027184278	218
0	1667	328.940876027113	219
0	1668	328.940876027113	220
0	1670	329.552547818064	221
0	1671	329.552547818064	222
0	1672	330	221
0	1673	330	220
0	1676	331.16027184278	219
0	1679	331.233232742274	220
0	1680	331.233232742274	221
0	1682	332.062939110635	222
0	1683	332.062939110635	223
0	1684	332.5	222
0	1685	332.5	221
0	1689	332.633888045966	222
0	1690	332.633888045966	223
0	1692	333.38193614087	224
0	1693	333.38193614087	225
0	1694	333.66027184278	224
0	1697	334.470106205017	225
0	1698	334.470106205017	226
0	1699	335	225
0	1700	335	224
0	1704	335.70407278241	225
0	1705	335.70407278241	226
0	1706	336.16027184278	225
0	1709	336.734242286279	226
0	1710	336.734242286279	227
0	1711	337.5	226
0	1712	337.5	225
0	1716	338.323085546029	226
0	1717	338.323085546029	227
0	1718	338.66027184278	226
0	1721	339.251013956723	227
0	1722	339.251013956723	228
0	1723	340	227
0	1724	340	226
0	1728	340.029730218902	227
0	1729	340.029730218902	228
0	1730	341.16027184278	227
0	1733	341.169124802825	228
0	1734	341.169124802825	229
0	1735	342.5	228
0	1736	342.5	227
0	1740	342.732320410756	228
0	1741	342.732320410756	229
0	1743	343.509038272283	230
0	1744	343.509038272283	231
0	1745	343.66027184278	230
0	1747	345	229
0	1748	345	228
0	1752	345.315927584452	229
0	1753	345.315927584452	230
0	1754	346.16027184278	229
0	1757	347.168246678492	230
0	1758	347.168246678492	231
0	1759	347.5	230
0	1760	347.5	229
0	1764	347.685427827529	230
0	1765	347.685427827529	231
0	1767	348.296760799284	232
0	1768	348.296760799284	233
0	1769	348.66027184278	232
0	1772	349.608873913757	233
0	1773	349.608873913757	234
0	1774	350	233
0	1775	350	232
0	1779	350.783568690436	233
0	1780	350.783568690436	234
0	1781	351.16027184278	233
0	1784	351.32475695879	234
0	1785	351.32475695879	235
0	1786	352.5	234
0	1787	352.5	233
0	1791	352.769757481446	234
0	1792	352.769757481446	235
0	1793	353.66027184278	234
0	1796	353.861185212775	235
0	1797	353.861185212775	236
0	1798	355	235
0	1799	355	234
0	1803	355.265145546088	235
0	1804	355.265145546088	236
0	1805	356.16027184278	235
0	1808	356.490212277701	236
0	1809	356.490212277701	237
0	1810	357.5	236
0	1811	357.5	235
0	1815	357.939433168171	236
0	1816	357.939433168171	237
0	1817	358.66027184278	236
0	1820	359.810253082015	237
0	1821	359.810253082015	238
0	1822	360	237
0	1823	360	236
0	1826	361.16027184278	235
0	1829	361.380981644404	236
0	1830	361.380981644404	237
0	1832	362.16599481945	238
0	1833	362.16599481945	239
0	1834	362.5	238
0	1835	362.5	237
0	1838	363.66027184278	236
0	1841	364.079409280669	237
0	1842	364.079409280669	238
0	1843	365	237
0	1844	365	236
0	1848	366.011427131955	237
0	1849	366.011427131955	238
0	1850	366.16027184278	237
0	1853	367.441425565567	238
0	1854	367.441425565567	239
0	1855	367.5	238
0	1856	367.5	237
0	1860	367.770653972321	238
0	1861	367.770653972321	239
0	1862	368.66027184278	238
0	1865	369.197987287836	239
0	1866	369.197987287836	240
0	1868	369.790603582919	241
0	1869	369.790603582919	242
0	1870	370	241
0	1871	370	240
0	1875	370.750848169749	241
0	1876	370.750848169749	242
0	1878	370.832209115707	243
0	1879	370.832209115707	244
0	1880	371.16027184278	243
0	1883	372.379092632726	244
0	1884	372.379092632726	245
0	1885	372.5	244
0	1886	372.5	243
0	1890	372.907191246138	244
0	1891	372.907191246138	245
0	1892	373.66027184278	244
0	1895	374.603119127377	245
0	1896	374.603119127377	246
0	1897	375	245
0	1898	375	244
0	1902	375.50390227954	245
0	1903	375.50390227954	246
0	1904	376.16027184278	245
0	1907	376.946447040066	246
0	1908	376.946447040066	247
0	1909	377.5	246
0	1910	377.5	245
0	1914	377.784396900703	246
0	1915	377.784396900703	247
0	1916	378.66027184278	246
0	1919	378.902394548384	247
0	1920	378.902394548384	248
0	1921	380	247
0	1922	380	246
0	1926	380.014609857875	247
0	1927	380.014609857875	248
0	1929	381.14983868814	249
0	1930	381.14983868814	250
0	1931	381.16027184278	249
0	1934	381.561586956089	250
0	1935	381.561586956089	251
0	1936	382.5	250
0	1937	382.5	249
0	1941	382.777442728517	250
0	1942	382.777442728517	251
0	1944	383.110766981319	252
0	1945	383.110766981319	253
0	1946	383.66027184278	252
0	1949	384.294128975923	253
0	1950	384.294128975923	254
0	1951	385	253
0	1952	385	252
0	1956	385.221054269997	253
0	1957	385.221054269997	254
0	1958	386.16027184278	253
0	1961	386.484621352601	254
0	1962	386.484621352601	255
0	1963	387.5	254
0	1964	387.5	253
0	1968	387.649076276832	254
0	1969	387.649076276832	255
0	1971	388.461737237244	256
0	1972	388.461737237244	257
0	1973	388.66027184278	256
0	1976	389.600857717764	257
0	1977	389.600857717764	258
0	1978	390	257
0	1979	390	256
0	1982	391.16027184278	255
0	1985	391.228373047763	256
0	1986	391.228373047763	257
0	1987	392.5	256
0	1988	392.5	255
0	1991	393.66027184278	254
0	1994	393.728990380669	255
0	1995	393.728990380669	256
0	1997	394.614207507495	257
0	1998	394.614207507495	258
0	1999	395	257
0	2000	395	256
0	2004	395.633432780621	257
0	2005	395.633432780621	258
0	2006	396.16027184278	257
0	2009	396.597930405469	258
0	2010	396.597930405469	259
0	2012	397.080573588608	260
0	2013	397.080573588608	261
0	2014	397.5	260
0	2015	397.5	259
0	2019	397.991466954459	260
0	2020	397.991466954459	261
0	2021	398.66027184278	260
0	2024	399.417342397423	261
0	2025	399.417342397423	262
0	2026	400	261
0	2027	400	260
0	2031	400.5789570097	261
0	2032	400.5789570097	262
0	2034	400.932478530232	263
0	2035	400.932478530232	264
0	2036	401.16027184278	263
0	2039	402.401198175857	264
0	2040	402.401198175857	265
0	2041	402.5	264
0	2042	402.5	263
0	2045	403.66027184278	262
0	2048	403.820517802946	263
0	2049	403.820517802946	264