version 3
run k_MM1_rand-28-20221127-16:03:22-5740
attr configname k_MM1_rand
attr datetime 20221127-16:03:22
attr datetimef 20221127-160322
attr experiment k_MM1_rand
attr inifile omnetpp.ini
attr iterationvars "$time=2.5, $num=5, $0=53542, $1=75335, $2=34542"
attr iterationvarsd time=2.5/num=5/53542/75335/34542
attr iterationvarsf time=2.5,num=5,53542,75335,34542-
attr measurement "$time=2.5, $num=5, $0=53542, $1=75335, $2=34542"
attr network randkMM1
attr processid 5740
attr repetition 0
attr replication #0
attr resultdir results
attr runnumber 28
attr seedset 28
itervar num 5
itervar time 2.5
config description "MM1 module k-times random"
config network randkMM1
config **.source.interArrivalTime "truncnormal(0.5s, 1.5s)"
config **.serviceTime 2.5s
config **.c 5
config **.capacity 10000
config record-eventlog false
config **.scalar-recording true
config **.vector-recording true
config repeat 4
config seed-1-mt 53542
config seed-2-mt 75335
config seed-3-mt 34542
config output-vector-file k_MM1_rand-5-2.5-results/0.vec
config output-scalar-file k_MM1_rand-5-2.5-results/0.sca

vector 0 randkMM1.mm1[2] queueLength:vector ETV
attr interpolationmode none
attr recordingmode vector
attr title "queue length"
vector 1 randkMM1.mm1[1] queueLength:vector ETV
attr interpolationmode none
attr recordingmode vector
attr title "queue length"
vector 2 randkMM1.mm1[2] util:vector ETV
attr interpolationmode none
attr recordingmode vector
attr title resources
vector 3 randkMM1.mm1[1] util:vector ETV
attr interpolationmode none
attr recordingmode vector
attr title resources
vector 4 randkMM1.mm1[0] queueLength:vector ETV
attr interpolationmode none
attr recordingmode vector
attr title "queue length"
vector 5 randkMM1.mm1[0] util:vector ETV
attr interpolationmode none
attr recordingmode vector
attr title resources
vector 6 randkMM1.mm1[4] queueLength:vector ETV
attr interpolationmode none
attr recordingmode vector
attr title "queue length"
vector 7 randkMM1.mm1[4] util:vector ETV
attr interpolationmode none
attr recordingmode vector
attr title resources
vector 8 randkMM1.mm1[3] queueLength:vector ETV
attr interpolationmode none
attr recordingmode vector
attr title "queue length"
vector 9 randkMM1.mm1[3] util:vector ETV
attr interpolationmode none
attr recordingmode vector
attr title resources
0	9	11.656751773861	1
0	10	11.656751773861	2
0	16	12.5	1
0	35	15	0
0	191	38.197136244668	1
0	192	38.239534789408	0
0	339	59.105451980905	1
0	340	59.408254554374	0
0	346	60.631023273633	1
0	347	60.631023273633	2
0	361	61.819703161075	3
0	362	61.908254554374	2
0	374	64.408254554374	1
0	380	65.344720989419	2
0	390	66.908254554374	1
0	396	67.893814628074	2
0	412	69.408254554374	1
0	421	70.649192523973	2
0	422	70.649192523973	3
0	431	71.908254554374	2
0	437	72.865407991024	3
0	445	74.408254554374	2
0	454	76.908254554374	1
0	466	77.76956467224	2
0	471	77.812295363876	3
0	475	78.827415783047	4
0	476	78.827415783047	5
0	480	79.347964829541	6
0	482	79.408254554374	5
0	494	80.643672170551	6
0	504	81.908254554374	5
0	517	82.832560840817	6
0	525	84.187174442412	7
0	529	84.408254554374	6
0	543	86.908254554374	5
0	552	88.057700447836	6
0	553	88.057700447836	7
0	560	89.408254554374	6
0	571	91.74284587626	7
0	573	91.908254554374	6
0	582	94.408254554374	5
0	588	94.904763636019	6
0	589	94.904763636019	7
0	598	96.908254554374	6
0	609	99.408254554374	5
0	620	99.896660045945	6
0	628	101.908254554374	5
0	654	104.408254554374	4
0	679	106.908254554374	3
0	699	109.359925882851	4
0	701	109.408254554374	3
0	736	111.908254554374	2
0	754	113.557313650701	3
0	756	114.408254554374	2
0	765	115.326929796109	3
0	773	116.908254554374	2
0	785	117.590502727684	3
0	797	119.408254554374	2
0	817	121.908254554374	1
0	837	124.408254554374	0
0	846	125.212509775205	1
0	856	126.908254554374	0
0	954	141.100698849757	1
0	966	142.335417480466	2
0	968	142.590091819165	1
0	983	145.090091819165	0
0	1178	174.095405569564	1
0	1179	175.572123281815	0
0	1192	176.496551018604	1
0	1198	178.072123281815	0
0	1379	204.932990750892	1
0	1389	205.873847603322	2
0	1391	206.203974603368	1
0	1405	208.703974603368	0
0	1483	219.035610907771	1
0	1488	221.088521969483	0
0	1505	222.395798367294	1
0	1506	223.588521969483	0
0	1605	236.06295896634	1
0	1616	238.361520238144	0
0	1625	239.672094879347	1
0	1633	240.861520238144	0
0	1767	253.322534431212	1
0	1769	253.341652162492	0
0	1802	257.908485762421	1
0	1814	259.395797815038	0
0	1920	273.654029814704	1
0	1925	273.840827222476	2
0	1929	274.848492641129	1
0	1949	277.348492641129	0
0	1961	278.779586236589	1
0	1962	278.779586236589	2
0	1971	279.848492641129	1
0	1978	280.454998839609	2
0	1989	281.905670670698	3
0	1993	282.348492641129	2
0	2000	282.485768388541	3
0	2011	284.351798956879	4
0	2012	284.848492641129	3
0	2031	287.348492641129	2
0	2051	288.143698914041	3
0	2052	288.143698914041	4
0	2068	289.848492641129	3
0	2081	291.217997610139	4
0	2082	292.348492641129	3
0	2101	294.848492641129	2
0	2116	295.08827512624	3
0	2126	297.348492641129	2
0	2138	299.848492641129	1
0	2144	299.936462090327	2
0	2152	302.348492641129	1
0	2161	302.55668221348	2
0	2175	304.045061901446	3
0	2181	304.848492641129	2
0	2193	305.084663670471	3
0	2216	307.348492641129	2
0	2239	308.966128545212	3
0	2244	309.48681224884	4
0	2251	309.848492641129	3
0	2269	311.699961462368	4
0	2271	312.348492641129	3
0	2296	314.848492641129	2
0	2308	317.348492641129	1
0	2325	318.061348934439	2
0	2332	319.848492641129	1
0	2341	320.007617037471	2
0	2342	320.007617037471	3
0	2355	320.656133582955	4
0	2357	322.348492641129	3
0	2389	324.848492641129	2
0	2407	325.6200257592	3
0	2409	327.348492641129	2
0	2427	328.364970507155	3
0	2434	329.848492641129	2
0	2451	332.348492641129	1
0	2471	334.848492641129	0
0	2484	335.70548972649	1
0	2485	337.348492641129	0
0	2492	337.410564553332	1
0	2513	338.755598154076	2
0	2519	339.848492641129	1
0	2544	342.348492641129	0
0	2559	343.055138303147	1
0	2569	344.848492641129	0
0	2641	354.30202116708	1
0	2650	356.626812823733	0
0	2811	373.211941594283	1
0	2826	375.711941594283	0
0	2853	378.792807663482	1
0	2858	378.964564383498	2
0	2875	381.292807663482	1
0	2884	381.496330539671	2
0	2902	383.792807663482	1
0	2922	386.292807663482	0
0	2931	387.160067537348	1
0	2944	388.792807663482	0
0	3008	397.526258457812	1
0	3019	398.349260818739	0
0	3028	398.941055398385	1
0	3044	400.849260818739	0
0	3233	424.642986959898	1
0	3243	425.013101948555	0
0	3505	453.146236881163	1
0	3521	455.000872426718	0
0	3712	478.547216169115	1
0	3719	479.62584983227	0
0	3738	481.369879108708	1
0	3739	482.12584983227	0
0	3875	500.406657260631	1
0	3880	502.078926402134	0
0	3889	504.574750516274	1
0	3891	504.578926402134	0
0	3897	505.526991459026	1
0	3910	506.505956424118	2
0	3915	506.770203867401	3
0	3917	507.078926402134	2
0	3923	507.290406618586	3
0	3924	507.290406618586	4
0	3934	508.402471625387	5
0	3939	509.578926402134	4
0	3958	512.078926402134	3
0	3975	513.679459238164	4
0	3977	514.578926402134	3
0	3996	517.078926402134	2
0	4005	517.892922159301	3
0	4018	519.578926402134	2
0	4037	521.505868914747	3
0	4038	522.078926402134	2
0	4055	523.703773623118	3
0	4057	524.578926402134	2
0	4076	526.11800414507	3
0	4084	527.078926402134	2
0	4106	529.578926402134	1
0	4116	530.681466360953	2
0	4126	532.078926402134	1
0	4143	534.578926402134	0
0	4149	535.477027890358	1
0	4150	535.477027890358	2
0	4154	537.078926402134	1
0	4169	538.295373523955	2
0	4174	539.238796453382	3
0	4175	539.578926402134	2
0	4199	542.078926402134	1
0	4224	544.578926402134	0
0	4241	545.889819083827	1
0	4249	547.078926402134	0
0	4315	556.873532756793	1
0	4316	556.878297360563	0
0	4377	566.66511409268	1
0	4396	568.766863281215	0
0	4408	571.026049424395	1
0	4410	571.266863281215	0
0	4532	584.284529070774	1
0	4545	586.311194816838	0
0	4632	593.862684638801	1
0	4645	596.147650973661	2
0	4646	596.147650973661	3
0	4650	596.362684638801	2
0	4677	598.862684638801	1
0	4700	600.851254336187	2
0	4702	601.362684638801	1
0	4719	603.862684638801	0
0	4737	604.879941427746	1
0	4746	606.362684638801	0
0	4753	606.587862214751	1
0	4775	608.315204486495	2
0	4780	608.654221996753	3
0	4781	608.862684638801	2
0	4798	611.362684638801	1
0	4823	613.862684638801	0
0	4863	616.860188465011	1
0	4870	617.706683235302	2
0	4886	619.360188465011	1
0	4906	621.860188465011	0
0	5057	642.013357594014	1
0	5080	644.513357594014	0
0	5136	650.879736883135	1
0	5149	651.991444322211	2
0	5150	651.991444322211	3
0	5151	653.007201043005	2
0	5165	655.507201043005	1
0	5181	656.392264032818	2
0	5186	656.998000702888	3
0	5187	658.007201043005	2
0	5205	660.149439437754	3
0	5206	660.507201043005	2
0	5227	661.433655740732	3
0	5238	663.007201043005	2
0	5255	665.507201043005	1
0	5277	668.007201043005	0
0	5293	670.145987909244	1
0	5294	670.507201043005	0
0	5365	681.338539831661	1
0	5382	683.338383250985	2
0	5383	683.838539831661	1
0	5400	686.338539831661	0
0	5472	696.388576457895	1
0	5477	697.594414203955	0
0	5520	701.320871440893	1
0	5533	703.31454932583	2
0	5535	703.820871440893	1
0	5550	705.859408943638	2
0	5552	706.320871440893	1
0	5559	707.447201191665	2
0	5566	708.820871440893	1
0	5577	711.320871440893	0
0	5594	713.736777757396	1
0	5595	713.736777757396	2
0	5596	713.820871440893	1
0	5610	716.320871440893	0
0	5708	736.570648869902	1
0	5710	738.536778320821	0
0	5753	742.912063348486	1
0	5754	742.912063348486	2
0	5758	743.330910816058	3
0	5765	743.793767847484	2
0	5782	746.293767847484	1
0	5804	748.706575627918	2
0	5806	748.793767847484	1
0	5826	751.293767847484	0
0	5841	752.806831658955	1
0	5848	753.793767847484	0
0	6048	783.494310501843	1
0	6058	785.994310501843	0
0	6064	786.252216664786	1
0	6077	788.494310501843	0
0	6131	796.344096117458	1
0	6133	796.715620317552	0
0	6215	806.178300291593	1
0	6220	807.003341752433	0
0	6232	808.554442769783	1
0	6234	809.503341752433	0
0	6317	818.454828540774	1
0	6322	818.729937935436	2
0	6323	818.855910828896	1
0	6329	819.205197031891	2
0	6353	821.355910828896	1
0	6368	823.855910828896	0
0	6386	826.089485633617	1
0	6388	826.355910828896	0
0	6419	830.43623178084	1
0	6425	830.499301553348	2
0	6426	832.649576899772	1
0	6453	835.149576899772	0
0	6469	836.765916824001	1
0	6470	837.649576899772	0
0	6490	839.458052499473	1
0	6492	840.149576899772	0
0	6560	852.698600476487	1
0	6564	853.240975073561	0
0	6571	853.498333298644	1
0	6588	855.740975073561	0
0	6676	869.268965954814	1
0	6678	869.725198833419	0
0	6844	891.834997794596	1
0	6845	891.834997794596	2
0	6849	892.455182708645	1
0	6860	894.955182708645	0
0	6886	897.884219993765	1
0	6896	900.252261483027	0
0	6971	910.493934395892	1
0	6985	912.434303223183	0
0	7091	925.907681093321	1
0	7101	927.26892903029	0
0	7138	932.357341296217	1
0	7143	932.575905958262	2
0	7157	934.857341296217	1
0	7169	936.35436334882	2
0	7177	937.357341296217	1
0	7186	938.403841901976	2
0	7187	938.403841901976	3
0	7194	939.759642960178	4
0	7196	939.857341296217	3
0	7215	942.357341296217	2
0	7226	943.240740314795	3
0	7235	944.232823745002	4
0	7239	944.517490019472	5
0	7247	944.857341296217	4
0	7253	945.486464037475	5
0	7267	947.357341296217	4
0	7281	949.857341296217	3
0	7303	952.357341296217	2
0	7320	953.400808195386	3
0	7335	954.857341296217	2
0	7344	956.007460873155	3
0	7357	957.357341296217	2
0	7377	959.857341296217	1
0	7402	962.357341296217	0
0	7409	962.986472279411	1
0	7423	963.294065728846	2
0	7431	963.975369432373	3
0	7432	963.975369432373	4
0	7442	964.857341296217	3
0	7462	967.357341296217	2
0	7487	969.857341296217	1
0	7493	969.950466982472	2
0	7499	970.741223724731	3
0	7503	971.20578848108	4
0	7504	971.20578848108	5
0	7514	972.357341296217	4
0	7523	973.555937515556	5
0	7536	974.857341296217	4
0	7551	977.357341296217	3
0	7558	978.004289697368	4
0	7567	979.857341296217	3
0	7588	982.112620814959	4
0	7589	982.357341296217	3
0	7603	984.857341296217	2
0	7625	987.357341296217	1
0	7642	989.857341296217	0
0	7665	994.756217760771	1
0	7666	994.756217760771	2
0	7672	995.630151166592	1
0	7691	998.130151166592	0
0	7786	1009.831924480046	1
0	7796	1012.331924480046	0
0	7895	1025.630038040016	1
0	7900	1026.161554664826	0
0	7906	1027.181575522744	1
0	7915	1027.698137483699	2
0	7927	1028.661554664826	1
0	7952	1031.161554664826	0
0	7959	1031.590404909058	1
0	7966	1033.661554664826	0
0	7980	1034.603601206062	1
0	7989	1035.707970209457	2
0	7993	1036.161554664826	1
0	8007	1038.661554664826	0
0	8014	1038.798288196023	1
0	8018	1039.59459202689	2
0	8026	1041.161554664826	1
0	8043	1043.661554664826	0
0	8050	1044.030594076999	1
0	8058	1045.245696990757	2
0	8062	1046.161554664826	1
0	8068	1046.320524951727	2
0	8069	1046.320524951727	3
0	8084	1048.661554664826	2
0	8102	1050.996061085907	3
0	8103	1051.161554664826	2
0	8110	1051.992227724238	3
0	8125	1053.661554664826	2
0	8132	1054.084154379048	3
0	8137	1054.35095939139	4
0	8152	1056.161554664826	3
0	8178	1058.234849753155	4
0	8179	1058.661554664826	3
0	8208	1061.161554664826	2
0	8217	1061.775555222633	3
0	8228	1063.661554664826	2
0	8234	1063.969230023596	3
0	8243	1065.269709136144	4
0	8257	1065.417110838021	5
0	8258	1066.161554664826	4
0	8264	1067.635648957374	5
0	8278	1068.661554664826	4
0	8295	1071.161554664826	3
0	8314	1073.661554664826	2
0	8346	1076.161554664826	1
0	8353	1076.451172274671	2
0	8371	1078.661554664826	1
0	8388	1081.161554664826	0
0	8472	1089.523583421548	1
0	8483	1090.523389541069	2
0	8488	1091.263886033892	1
0	8498	1092.654606311207	2
0	8510	1093.763886033892	1
0	8530	1096.263886033892	0
0	8536	1096.477889856672	1
0	8537	1096.477889856672	2
0	8552	1098.763886033892	1
0	8572	1101.088958636768	2
0	8574	1101.263886033892	1
0	8596	1103.035258484253	2
0	8601	1103.763886033892	1
0	8623	1106.263886033892	0
0	8638	1107.497527339984	1
0	8648	1108.763886033892	0
0	8663	1109.791686001367	1
0	8670	1111.263886033892	0
0	8754	1118.244625846467	1
0	8764	1118.934365321813	2
0	8771	1120.084571861127	1
0	8783	1122.584571861127	0
0	8851	1132.769181809072	1
0	8858	1133.294358356978	0
0	8916	1142.423052963779	1
0	8917	1142.561338055524	0
0	8926	1143.043236399646	1
0	8936	1145.061338055524	0
0	8948	1146.407302182323	1
0	8955	1147.561338055524	0
0	9072	1161.024894843628	1
0	9079	1161.579106300587	2
0	9087	1163.524894843628	1
0	9096	1164.875367228713	2
0	9109	1166.024894843628	1
0	9121	1168.524894843628	0
0	9180	1176.161452381531	1
0	9197	1178.661452381531	0
0	9203	1178.844111094372	1
0	9217	1181.004932940914	2
0	9219	1181.161452381531	1
0	9228	1183.661452381531	0
0	9235	1183.805842959469	1
0	9249	1186.161452381531	0
0	9288	1190.443682504981	1
0	9302	1192.308019801459	2
0	9303	1192.847150252372	1
0	9320	1194.061999124596	2
0	9325	1195.347150252372	1
0	9338	1196.129828466386	2
0	9342	1197.847150252372	1
0	9361	1200.347150252372	0
0	9370	1201.137357081398	1
0	9381	1202.847150252372	0
0	9393	1204.462628308007	1
0	9403	1205.347150252372	0
0	9413	1205.910477451966	1
0	9420	1207.847150252372	0
0	9448	1212.241917625724	1
0	9449	1212.241917625724	2
0	9453	1212.441898419284	3
0	9461	1213.789285805969	2
0	9470	1216.289285805969	1
0	9499	1218.051321630471	2
0	9500	1218.051321630471	3
0	9511	1218.789285805969	2
0	9536	1221.289285805969	1
0	9556	1223.789285805969	0
0	9605	1228.380942628298	1
0	9621	1230.583496150095	0
0	9689	1240.220461624531	1
0	9694	1240.228381854813	2
0	9705	1240.783918197469	1
0	9722	1243.283918197469	0
0	9734	1244.217834597981	1
0	9749	1245.783918197469	0
0	9763	1247.347578799084	1
0	9764	1247.347578799084	2
0	9774	1248.283918197469	1
0	9794	1250.783918197469	0
0	9800	1251.008868197594	1
0	9816	1253.283918197469	0
0	9900	1262.931881095955	1
0	9905	1264.665983234335	0
0	9980	1275.823701890518	1
0	9981	1275.823701890518	2
0	9982	1276.209462582179	1
0	9991	1278.709462582179	0
0	9998	1279.793077918819	1
0	10005	1281.076585185497	2
0	10006	1281.076585185497	3
0	10007	1281.209462582179	2
0	10018	1283.709462582179	1
0	10032	1286.209462582179	0
0	10052	1286.643639780528	1
0	10061	1288.709462582179	0
0	10073	1289.146434998189	1
0	10074	1289.146434998189	2
0	10088	1291.209462582179	1
0	10110	1293.709462582179	0
0	10128	1294.323132934932	1
0	10138	1295.754558199983	2
0	10140	1296.209462582179	1
0	10147	1296.463104922531	2
0	10165	1298.709462582179	1
0	10171	1298.79737189676	2
0	10192	1301.209462582179	1
0	10207	1303.709462582179	0
0	10214	1304.074352971518	1
0	10237	1306.209462582179	0
0	10246	1307.082197889348	1
0	10255	1308.527763292184	2
0	10261	1308.709462582179	1
0	10271	1309.438342597931	2
0	10278	1311.016315986316	3
0	10283	1311.209462582179	2
0	10305	1313.709462582179	1
0	10325	1316.209462582179	0
0	10345	1318.092421555279	1
0	10355	1318.709462582179	0
0	10506	1343.196655968336	1
0	10507	1343.955828439353	0
0	10583	1353.788434983965	1
0	10585	1354.795306638035	0
0	10695	1368.549295341659	1
0	10697	1369.595974969191	0
0	10823	1390.322802619397	1
0	10824	1390.818260439267	0
0	10844	1395.939514775051	1
0	10850	1395.968650701185	2
0	10851	1396.853130477798	1
0	10875	1399.353130477798	0
0	10885	1399.467379732725	1
0	10905	1401.853130477798	0
0	10935	1403.901839027322	1
0	10942	1404.353130477798	0
0	10965	1406.623012016608	1
0	10967	1406.853130477798	0
0	11004	1410.402458679775	1
0	11017	1412.902458679775	0
0	11104	1422.706098225684	1
0	11117	1424.772953389911	0
0	11220	1439.062564661361	1
0	11225	1439.191074150196	2
0	11230	1439.494130445223	1
0	11242	1441.230194087104	2
0	11252	1441.994130445223	1
0	11274	1444.494130445223	0
0	11281	1446.06883713179	1
0	11292	1446.573213725479	2
0	11301	1446.994130445223	1
0	11307	1448.578105036458	2
0	11308	1448.578105036458	3
0	11331	1449.494130445223	2
0	11338	1449.868010828719	3
0	11348	1451.994130445223	2
0	11372	1454.494130445223	1
0	11385	1456.460560981781	2
0	11394	1456.994130445223	1
0	11400	1457.28445767976	2
0	11401	1457.28445767976	3
0	11405	1458.342077513404	4
0	11406	1458.342077513404	5
0	11421	1459.494130445223	4
0	11432	1460.967265470648	5
0	11448	1461.994130445223	4
0	11454	1462.755043643955	5
0	11468	1464.494130445223	4
0	11485	1466.994130445223	3
0	11505	1469.494130445223	2
0	11522	1471.505678569351	3
0	11523	1471.505678569351	4
0	11524	1471.994130445223	3
0	11531	1472.566190988066	4
0	11541	1474.337868334396	5
0	11543	1474.494130445223	4
0	11550	1475.982702486541	5
0	11562	1476.994130445223	4
0	11572	1479.124578969241	5
0	11579	1479.494130445223	4
0	11585	1479.707122581593	5
0	11590	1480.138072362758	6
0	11601	1481.026476896231	7
0	11605	1481.994130445223	6
0	11627	1484.494130445223	5
0	11636	1484.948506087272	6
0	11652	1486.994130445223	5
0	11666	1489.494130445223	4
0	11681	1491.399283343897	5
0	11691	1491.994130445223	4
0	11701	1492.247584015665	5
0	11713	1494.494130445223	4
0	11726	1495.061567229367	5
0	11738	1496.994130445223	4
0	11758	1499.494130445223	3
0	11764	1499.595513327849	4
0	11777	1501.994130445223	3
0	11792	1503.63914683132	4
0	11801	1504.494130445223	3
0	11823	1506.994130445223	2
0	11843	1509.494130445223	1
0	11850	1510.246573513076	2
0	11867	1511.994130445223	1
0	11882	1514.494130445223	0
0	11957	1520.951973667897	1
0	11965	1521.973559598117	2
0	11966	1521.973559598117	3
0	11977	1522.39520574241	4
0	11978	1523.131183625964	3
0	11998	1525.631183625964	2
0	12012	1525.849210974165	3
0	12020	1528.131183625964	2
0	12033	1528.635203718112	3
0	12040	1530.631183625964	2
0	12047	1530.773632838533	3
0	12062	1533.131183625964	2
0	12084	1535.631183625964	1
0	12101	1538.131183625964	0
0	12144	1543.225087752387	1
0	12150	1543.537534214318	0
0	12173	1545.792885126091	1
0	12175	1546.037534214318	0
0	12181	1546.672163089668	1
0	12200	1548.537534214318	0
0	12209	1549.517815682364	1
0	12210	1549.517815682364	2
0	12225	1551.037534214318	1
0	12252	1553.537534214318	0
0	12348	1562.830591130954	1
0	12350	1563.244353455747	0
0	12458	1577.621549332331	1
0	12469	1579.614847268957	0
0	12490	1581.968421821117	1
0	12491	1582.114847268957	0
0	12522	1585.926379753891	1
0	12533	1588.409835827578	0
0	12539	1588.624413666208	1
0	12560	1590.909835827578	0
0	13183	1671.175747033036	1
0	13188	1672.438958598841	0
0	13203	1673.81174475104	1
0	13213	1674.938958598841	0
0	13219	1675.46396369219	1
0	13220	1675.46396369219	2
0	13235	1677.438958598841	1
0	13254	1679.938958598841	0
0	13271	1681.977547700668	1
0	13281	1682.438958598841	0
0	13329	1688.058323950469	1
0	13330	1688.377013749226	0
0	13377	1693.48283830029	1
0	13379	1693.664853299752	0
0	13409	1694.727182244566	1
0	13411	1696.164853299752	0
0	13418	1696.616875374889	1
0	13431	1698.664853299752	0
0	13487	1705.826189614587	1
0	13488	1705.826189614587	2
0	13490	1706.596793165569	1
0	13499	1706.950780972487	2
0	13514	1709.096793165569	1
0	13530	1710.254342652822	2
0	13531	1711.596793165569	1
0	13550	1714.096793165569	0
0	13563	1714.732199468628	1
0	13570	1715.636358641438	2
0	13575	1716.596793165569	1
0	13592	1718.585579196807	2
0	13594	1719.096793165569	1
0	13601	1719.116549137282	2
0	13621	1721.596793165569	1
0	13641	1724.096793165569	0
0	13703	1733.847245731873	1
0	13704	1733.847245731873	2
0	13721	1734.762396329064	3
0	13724	1734.962788670981	2
0	13743	1736.744673389549	3
0	13749	1737.462788670981	2
0	13764	1739.962788670981	1
0	13773	1740.004753288004	2
0	13783	1742.462788670981	1
0	13791	1742.549394132198	2
0	13809	1744.211195047684	3
0	13812	1744.962788670981	2
0	13827	1746.944716720602	3
0	13829	1747.462788670981	2
0	13837	1749.14944312479	3
0	13838	1749.14944312479	4
0	13843	1749.962788670981	3
0	13854	1752.462788670981	2
0	13868	1752.898960889412	3
0	13881	1754.962788670981	2
0	13916	1757.462788670981	1
0	13941	1759.962788670981	0
0	13959	1761.969965214058	1
0	13961	1762.462788670981	0
0	13975	1763.03911423206	1
0	13979	1763.281703979	2
0	14003	1764.962788670981	1
0	14028	1767.462788670981	0
0	14076	1772.520145582539	1
0	14080	1774.222856484135	0
0	14106	1776.310429525708	1
0	14107	1776.722856484135	0
0	14131	1778.263640845118	1
0	14132	1779.222856484135	0
0	14339	1803.197477331696	1
0	14344	1803.923631757262	0
0	14356	1804.10693807088	1
0	14357	1804.10693807088	2
0	14364	1806.423631757262	1
0	14381	1808.923631757262	0
0	14390	1809.805661736848	1
0	14403	1811.423631757262	0
0	14416	1813.613742648697	1
0	14417	1813.923631757262	0
0	14423	1814.034393101526	1
0	14424	1814.034393101526	2
0	14437	1816.258471401204	3
0	14438	1816.258471401204	4
0	14439	1816.423631757262	3
0	14445	1818.923631757262	2
0	14455	1820.408400584612	3
0	14460	1821.090266009152	4
0	14465	1821.139685604667	5
0	14466	1821.423631757262	4
0	14478	1823.923631757262	3
0	14494	1826.423631757262	2
0	14501	1826.488302161443	3
0	14519	1828.923631757262	2
0	14536	1831.423631757262	1
0	14549	1833.152405652245	2
0	14553	1833.923631757262	1
0	14560	1835.057935369602	2
0	14564	1836.423631757262	1
0	14575	1836.826444645383	2
0	14580	1838.923631757262	1
0	14602	1841.423631757262	0
0	14614	1843.203703089952	1
0	14620	1843.801018564284	2
0	14621	1843.923631757262	1
0	14632	1844.146024523909	2
0	14640	1845.206281861839	3
0	14645	1846.423631757262	2
0	14654	1847.354904607272	3
0	14662	1848.923631757262	2
0	14684	1850.839770043959	3
0	14689	1851.423631757262	2
0	14701	1853.301778490893	3
0	14706	1853.923631757262	2
0	14720	1856.423631757262	1
0	14726	1856.560844477018	2
0	14727	1856.560844477018	3
0	14734	1858.923631757262	2
0	14750	1861.423631757262	1
0	14759	1862.36875213	2
0	14767	1863.923631757262	1
0	14784	1866.423631757262	0
0	14877	1879.280314014241	1
0	14883	1880.314725640492	0
0	15067	1909.234966485439	1
0	15080	1910.664732410286	0
0	15093	1912.202342942344	1
0	15100	1912.613373063882	2
0	15101	1912.613373063882	3
0	15102	1913.164732410286	2
0	15109	1913.289311537599	3
0	15116	1915.664732410286	2
0	15135	1918.164732410286	1
0	15151	1918.458897601098	2
0	15160	1920.664732410286	1
0	15172	1921.225116523142	2
0	15173	1921.225116523142	3
0	15179	1923.164732410286	2
0	15205	1925.537484496874	3
0	15206	1925.664732410286	2
0	15218	1928.164732410286	1
0	15230	1929.710269334527	2
0	15232	1930.664732410286	1
0	15242	1931.084964131319	2
0	15256	1933.164732410286	1
0	15272	1935.011681007238	2
0	15273	1935.664732410286	1
0	15299	1938.164732410286	0
0	15338	1941.666332666044	1
0	15343	1942.397501995256	2
0	15365	1944.166332666044	1
0	15371	1945.258120822435	2
0	15388	1946.127687989079	3
0	15397	1946.666332666044	2
0	15417	1949.166332666044	1
0	15429	1950.665841107762	2
0	15437	1951.666332666044	1
0	15454	1954.166332666044	0
0	15460	1954.484210001566	1
0	15466	1954.927967125655	2
0	15473	1955.465228276962	3
0	15486	1956.666332666044	2
0	15501	1959.166332666044	1
0	15515	1961.666332666044	0
0	15574	1967.181752891055	1
0	15581	1967.986786396662	2
0	15586	1969.076547881884	1
0	15608	1971.571028632909	2
0	15610	1971.576547881884	1
0	15627	1974.076547881884	0
0	15639	1974.947853718799	1
0	15650	1975.448031445533	2
0	15652	1976.576547881884	1
0	15661	1977.008528898396	2
0	15674	1979.076547881884	1
0	15688	1981.576547881884	0
0	15697	1982.477856789384	1
0	15698	1982.477856789384	2
0	15708	1983.736531440937	3
0	15710	1984.076547881884	2
0	15724	1985.386479791446	3
0	15734	1986.576547881884	2
0	15741	1986.694705901712	3
0	15754	1989.076547881884	2
0	15760	1989.234149907771	3
0	15761	1989.234149907771	4
0	15778	1991.576547881884	3
0	15800	1994.076547881884	2
0	15818	1995.738355959185	3
0	15825	1996.576547881884	2
0	15831	1996.873246064617	3
0	15847	1999.076547881884	2
0	15864	2001.576547881884	1
0	15870	2003.793000455575	2
0	15878	2004.076547881884	1
0	15885	2005.578967709989	2
0	15897	2006.576547881884	1
0	15914	2009.076547881884	0
0	15960	2013.235354790125	1
0	15961	2013.235354790125	2
0	15968	2014.642131428351	1
0	15980	2017.142131428351	0
0	16075	2030.773593055554	1
0	16081	2031.178681586771	0
0	16286	2062.275921559844	1
0	16301	2064.775921559844	0
0	16321	2067.0922719432	1
0	16322	2067.0922719432	2
0	16323	2067.275921559844	1
0	16337	2069.775921559844	0
0	16352	2071.09335462612	1
0	16354	2072.275921559844	0
0	16446	2085.495704115205	1
0	16456	2087.995704115205	0
0	16462	2088.554418656182	1
0	16477	2090.495704115205	0
0	16486	2091.202674688448	1
0	16487	2091.202674688448	2
0	16498	2092.987088473986	3
0	16499	2092.995704115205	2
0	16512	2094.31038755537	3
0	16516	2095.495704115205	2
0	16527	2096.559129831948	3
0	16528	2096.559129831948	4
0	16535	2097.995704115205	3
0	16544	2098.680947661289	4
0	16546	2100.495704115205	3
0	16557	2102.995704115205	2
0	16571	2105.495704115205	1
0	16589	2107.551603963634	2
0	16590	2107.995704115205	1
0	16599	2108.560547321826	2
0	16609	2110.495704115205	1
0	16618	2111.079063282253	2
0	16632	2112.860538804539	3
0	16634	2112.995704115205	2
0	16653	2115.495704115205	1
0	16670	2117.995704115205	0
0	16680	2118.471753494915	1
0	16692	2120.495704115205	0
0	16698	2121.042447681092	1
0	16708	2122.231003686263	2
0	16709	2122.231003686263	3
0	16724	2122.995704115205	2
0	16730	2124.440398971614	3
0	16731	2124.440398971614	4
0	16741	2125.495704115205	3
0	16755	2127.995704115205	2
0	16772	2130.495704115205	1
0	16786	2132.341611861264	2
0	16793	2132.995704115205	1
0	16811	2134.070307965871	2
0	16815	2135.495704115205	1
0	16837	2137.995704115205	0
0	16849	2139.185089152638	1
0	16862	2139.787040110355	2
0	16869	2140.495704115205	1
0	16889	2142.696618725756	2
0	16891	2142.995704115205	1
0	16908	2145.495704115205	0
0	16915	2145.923324379547	1
0	16935	2147.995704115205	0
0	16942	2148.296612497941	1
0	16949	2150.495704115205	0
0	16965	2151.919626653294	1
0	16966	2152.995704115205	0
0	17021	2159.0465991944	1
0	17029	2159.378135236064	2
0	17035	2159.423574531981	1
0	17050	2161.923574531981	0
0	17058	2162.293369777034	1
0	17059	2162.293369777034	2
0	17069	2164.423574531981	1
0	17081	2165.500921856836	2
0	17085	2166.923574531981	1
0	17104	2169.423574531981	0
0	17274	2185.525899403758	1
0	17287	2188.025899403758	0
0	17328	2192.172282809536	1
0	17346	2193.777895788851	2
0	17351	2194.672282809536	1
0	17361	2195.485564460883	2
0	17371	2197.172282809536	1
0	17378	2197.249200788936	2
0	17383	2197.411434066335	3
0	17387	2199.672282809536	2
0	17398	2202.172282809536	1
0	17405	2202.565985650837	2
0	17415	2203.307760619711	3
0	17416	2203.307760619711	4
0	17430	2204.672282809536	3
0	17442	2206.269928546571	4
0	17447	2207.172282809536	3
0	17467	2209.308514149542	4
0	17472	2209.672282809536	3
0	17490	2212.166475727815	4
0	17491	2212.172282809536	3
0	17508	2214.672282809536	2
0	17525	2217.172282809536	1
0	17538	2218.987258505344	2
0	17542	2219.672282809536	1
0	17551	2222.172282809536	0
0	17751	2249.308843036426	1
0	17758	2249.902188692191	0
0	17843	2261.133853043919	1
0	17853	2263.633853043919	0
0	17876	2265.270786890911	1
0	17877	2266.133853043919	0
0	17920	2270.956712030998	1
0	17930	2272.386666070162	2
0	17945	2272.969289570171	1
0	17975	2275.469289570171	0
0	17991	2277.584836844153	1
0	17992	2277.584836844153	2
0	18002	2277.969289570171	1
0	18019	2278.863251787237	2
0	18034	2280.469289570171	1
0	18054	2282.969289570171	0
0	18146	2294.163081899099	1
0	18154	2295.243469277449	0
0	18171	2296.696981560235	1
0	18184	2297.743469277449	0
0	18198	2299.113350851531	1
0	18206	2300.243469277449	0
0	18219	2301.850767750864	1
0	18223	2302.743469277449	0
0	18241	2304.617852088739	1
0	18250	2305.243469277449	0
0	18652	2358.895889361203	1
0	18657	2359.578436820057	0
0	18707	2366.02026237932	1
0	18728	2367.936740121827	0
0	18740	2368.407566260853	1
0	18763	2370.436740121827	0
0	18798	2372.335690286087	1
0	18803	2372.936740121827	0
0	18867	2382.149122989661	1
0	18892	2384.649122989661	0
0	18905	2385.825381441253	1
0	18925	2386.906373654025	2
0	18927	2387.149122989661	1
0	18951	2389.404046191036	2
0	18952	2389.649122989661	1
0	18969	2392.149122989661	0
0	19008	2397.678220762701	1
0	19014	2398.897679868707	0
0	19052	2402.02814941468	1
0	19067	2403.197135369193	2
0	19068	2403.999157209442	1
0	19088	2406.499157209442	0
0	19111	2408.165099020543	1
0	19113	2408.999157209442	0
0	19134	2410.545879883361	1
0	19143	2411.499157209442	0
0	19155	2413.005994487772	1
0	19160	2413.999157209442	0
0	19173	2415.498913139283	1
0	19181	2416.052018472224	2
0	19182	2416.499157209442	1
0	19199	2418.651033080733	2
0	19201	2418.999157209442	1
0	19210	2419.563754314919	2
0	19233	2421.499157209442	1
0	19246	2422.36885059066	2
0	19263	2423.999157209442	1
0	19281	2426.122604293719	2
0	19288	2426.499157209442	1
0	19306	2428.499703447744	2
0	19313	2428.999157209442	1