version 3
run k_MM1_rand-29-20221127-16:03:22-5740
attr configname k_MM1_rand
attr datetime 20221127-16:03:22
attr datetimef 20221127-160322
attr experiment k_MM1_rand
attr inifile omnetpp.ini
attr iterationvars "$time=2.5, $num=5, $0=45732, $1=35463, $2=67563"
attr iterationvarsd time=2.5/num=5/45732/35463/67563
attr iterationvarsf time=2.5,num=5,45732,35463,67563-
attr measurement "$time=2.5, $num=5, $0=45732, $1=35463, $2=67563"
attr network randkMM1
attr processid 5740
attr repetition 1
attr replication #1
attr resultdir results
attr runnumber 29
attr seedset 29
itervar num 5
itervar time 2.5
config description "MM1 module k-times random"
config network randkMM1
config **.source.interArrivalTime "truncnormal(0.5s, 1.5s)"
config **.serviceTime 2.5s
config **.c 5
config **.capacity 10000
config record-eventlog false
config **.scalar-recording true
config **.vector-recording true
config repeat 4
config seed-1-mt 45732
config seed-2-mt 35463
config seed-3-mt 67563
config output-vector-file k_MM1_rand-5-2.5-results/1.vec
config output-scalar-file k_MM1_rand-5-2.5-results/1.sca

vector 0 randkMM1.mm1[3] queueLength:vector ETV
attr interpolationmode none
attr recordingmode vector
attr title "queue length"
vector 1 randkMM1.mm1[3] util:vector ETV
attr interpolationmode none
attr recordingmode vector
attr title resources
vector 2 randkMM1.mm1[4] util:vector ETV
attr interpolationmode none
attr recordingmode vector
attr title resources
vector 3 randkMM1.mm1[0] util:vector ETV
attr interpolationmode none
attr recordingmode vector
attr title resources
vector 4 randkMM1.mm1[4] queueLength:vector ETV
attr interpolationmode none
attr recordingmode vector
attr title "queue length"
vector 5 randkMM1.mm1[1] util:vector ETV
attr interpolationmode none
attr recordingmode vector
attr title resources
vector 6 randkMM1.mm1[1] queueLength:vector ETV
attr interpolationmode none
attr recordingmode vector
attr title "queue length"
vector 7 randkMM1.mm1[2] util:vector ETV
attr interpolationmode none
attr recordingmode vector
attr title resources
vector 8 randkMM1.mm1[2] queueLength:vector ETV
attr interpolationmode none
attr recordingmode vector
attr title "queue length"
vector 9 randkMM1.mm1[0] queueLength:vector ETV
attr interpolationmode none
attr recordingmode vector
attr title "queue length"
0	9	11.434973792102	1
0	11	12.5	0
0	21	12.509777528588	1
0	30	15	0
0	75	21.299875178965	1
0	90	23.799875178965	0
0	99	24.652359090115	1
0	109	26.299875178965	0
0	178	34.094573397675	1
0	191	35.885681954859	0
0	237	40.812533413764	1
0	238	41.228916965983	0
0	318	53.931563205686	1
0	330	56.431563205686	0
0	340	58.145625103651	1
0	341	58.931563205686	0
0	348	59.45748371704	1
0	358	61.199353508746	2
0	360	61.431563205686	1
0	369	63.931563205686	0
0	375	64.666616117361	1
0	382	66.431563205686	0
0	399	67.809459178999	1
0	400	67.809459178999	2
0	401	68.931563205686	1
0	423	70.523102542757	2
0	425	71.431563205686	1
0	442	73.931563205686	0
0	509	80.667546030815	1
0	519	82.354694005158	2
0	520	82.354694005158	3
0	527	82.797621605407	4
0	528	82.797621605407	5
0	529	83.167546030815	4
0	546	85.667546030815	3
0	557	88.167546030815	2
0	571	90.667546030815	1
0	581	91.977775673851	2
0	585	93.167546030815	1
0	602	95.017750800309	2
0	603	95.017750800309	3
0	604	95.667546030815	2
0	613	98.167546030815	1
0	634	100.667546030815	0
0	749	119.255086146624	1
0	759	121.755086146624	0
0	1120	167.006051010133	1
0	1133	168.955706489515	0
0	1186	175.467243281141	1
0	1193	176.861353337278	2
0	1201	177.967243281141	1
0	1228	180.467243281141	0
0	1281	187.354722635013	1
0	1283	188.427159402418	0
0	1296	188.981336468262	1
0	1307	190.10462353199	2
0	1308	190.927159402418	1
0	1317	192.334104129196	2
0	1322	193.427159402418	1
0	1336	195.927159402418	0
0	1442	210.910299646513	1
0	1446	211.713431947407	0
0	1505	221.738181132762	1
0	1508	221.867234388867	0
0	1522	223.058246349409	1
0	1526	224.109959517722	2
0	1529	224.367234388867	1
0	1546	226.867234388867	0
0	1566	228.232768378703	1
0	1568	229.367234388867	0
0	1587	230.18805052945	1
0	1589	231.867234388867	0
0	1607	232.830060750616	1
0	1613	234.367234388867	0
0	1683	242.796646566554	1
0	1688	243.871807218295	0
0	1698	245.039437050931	1
0	1712	246.371807218295	0
0	1718	247.018711380283	1
0	1729	248.871807218295	0
0	1873	268.464794761559	1
0	1884	270.266763988148	2
0	1891	270.528366670099	1
0	1909	272.447969078215	2
0	1911	273.028366670099	1
0	1928	274.157706580036	2
0	1950	275.528366670099	1
0	1973	277.782244279209	2
0	1975	278.028366670099	1
0	1982	278.365443438767	2
0	2000	280.528366670099	1
0	2020	283.028366670099	0
0	2101	292.930786061322	1
0	2105	293.722313213708	0
0	2111	293.783444711313	1
0	2135	296.222313213708	0
0	2149	296.975350587569	1
0	2160	298.722313213708	0
0	2170	299.42642836511	1
0	2180	301.222313213708	0
0	2338	324.072323347795	1
0	2345	325.301743090559	2
0	2346	325.301743090559	3
0	2353	326.526421205085	2
0	2363	326.617654434385	3
0	2375	329.026421205085	2
0	2384	329.763868623871	3
0	2394	331.526421205085	2
0	2408	334.026421205085	1
0	2427	336.526421205085	0
0	2447	338.937545201554	1
0	2448	338.937545201554	2
0	2449	339.026421205085	1
0	2461	341.526421205085	0
0	2467	341.58885329442	1
0	2485	344.026421205085	0
0	2499	345.274863015195	1
0	2510	346.526421205085	0
0	2547	350.900176523325	1
0	2548	350.900176523325	2
0	2554	351.702414251434	1
0	2571	353.09521908157	2
0	2572	353.09521908157	3
0	2576	353.93842668117	4
0	2578	354.202414251434	3
0	2587	356.702414251434	2
0	2596	356.949470614522	3
0	2605	358.545246982135	4
0	2606	359.202414251434	3
0	2615	360.309817541496	4
0	2630	361.702414251434	3
0	2642	362.83899238574	4
0	2657	364.202414251434	3
0	2677	366.702414251434	2
0	2686	367.417715780592	3
0	2687	367.417715780592	4
0	2694	369.202414251434	3
0	2708	370.737997300274	4
0	2718	371.702414251434	3
0	2728	371.901062277598	4
0	2736	372.548893733535	5
0	2743	373.57562761067	6
0	2744	373.57562761067	7
0	2748	374.202414251434	6
0	2762	376.702414251434	5
0	2774	379.202414251434	4
0	2788	381.659354897349	5
0	2790	381.702414251434	4
0	2804	384.202414251434	3
0	2818	386.702414251434	2
0	2840	389.202414251434	1
0	2862	391.702414251434	0
0	2879	393.240609622502	1
0	2884	393.557943111237	2
0	2885	393.557943111237	3
0	2886	394.202414251434	2
0	2902	395.682301541564	3
0	2913	396.702414251434	2
0	2933	399.202414251434	1
0	2940	399.328058318204	2
0	2950	401.702414251434	1
0	2963	403.611651959497	2
0	2969	404.202414251434	1
0	2982	406.151928282994	2
0	2993	406.52565007877	3
0	2994	406.702414251434	2
0	3016	409.202414251434	1
0	3048	411.702414251434	0
0	3100	419.905406739935	1
0	3104	420.323316134585	0
0	3118	421.456368887489	1
0	3127	422.636259564077	2
0	3128	422.823316134585	1
0	3140	423.941842278902	2
0	3145	425.323316134585	1
0	3162	427.823316134585	0
0	3182	429.527663592274	1
0	3183	429.527663592274	2
0	3184	430.323316134585	1
0	3194	431.407941327421	2
0	3206	432.823316134585	1
0	3228	435.323316134585	0
0	3237	436.736426885857	1
0	3245	437.823316134585	0
0	3266	442.206032937333	1
0	3267	442.896687464903	0
0	3292	448.20777801568	1
0	3293	448.20777801568	2
0	3303	449.752145594753	3
0	3305	450.420955745433	2
0	3324	452.920955745433	1
0	3341	455.420955745433	0
0	3347	456.514025906896	1
0	3348	456.514025906896	2
0	3355	457.920955745433	1
0	3362	458.937749709331	2
0	3371	460.420955745433	1
0	3388	461.717240823414	2
0	3393	462.920955745433	1
0	3408	464.187162286981	2
0	3409	465.420955745433	1
0	3423	466.292876145737	2
0	3431	467.920955745433	1
0	3449	469.119820250797	2
0	3458	470.420955745433	1
0	3483	472.920955745433	0
0	3512	475.304050244651	1
0	3513	475.420955745433	0
0	3594	483.269893485217	1
0	3601	484.002127592741	2
0	3615	485.655089289169	3
0	3617	485.769893485217	2
0	3635	487.599839015862	3
0	3642	488.269893485217	2
0	3648	488.796833593132	3
0	3661	490.769893485217	2
0	3678	493.269893485217	1
0	3684	493.630898382029	2
0	3693	494.904953649328	3
0	3705	495.769893485217	2
0	3727	498.269893485217	1
0	3737	498.954923852606	2
0	3752	500.769893485217	1
0	3771	503.269893485217	0
0	3786	504.692370584026	1
0	3800	505.769893485217	0
0	3848	510.69092162661	1
0	3857	511.580510653603	2
0	3861	512.303021344032	1
0	3888	514.803021344032	0
0	3950	520.940313524162	1
0	3954	521.498320440547	0
0	4067	538.346726483575	1
0	4068	538.357853296859	0
0	4164	548.178691504166	1
0	4175	550.042394666607	0
0	4211	555.456499545573	1
0	4215	555.586123245217	2
0	4216	555.586123245217	3
0	4220	556.509551342224	4
0	4228	557.956499545573	3
0	4234	558.24269095335	4
0	4239	559.530393687126	5
0	4247	560.456499545573	4
0	4254	561.783804277333	5
0	4261	562.956499545573	4
0	4275	565.456499545573	3
0	4289	567.956499545573	2
0	4296	569.047610627377	3
0	4306	570.456499545573	2
0	4313	571.987905545356	3
0	4317	572.956499545573	2
0	4329	575.114407230039	3
0	4333	575.456499545573	2
0	4347	577.243361630769	3
0	4348	577.243361630769	4
0	4352	577.956499545573	3
0	4371	580.456499545573	2
0	4378	580.509457926499	3
0	4383	582.150620759744	4
0	4399	582.850941826051	5
0	4400	582.956499545573	4
0	4415	585.290884237649	5
0	4419	585.456499545573	4
0	4434	587.956499545573	3
0	4453	590.456499545573	2
0	4462	591.066363232615	3
0	4475	592.956499545573	2
0	4488	593.933592598462	3
0	4500	595.456499545573	2
0	4509	596.886575607349	3
0	4517	597.956499545573	2
0	4527	599.650304696478	3
0	4531	600.456499545573	2
0	4543	602.956499545573	1
0	4550	603.593957421926	2
0	4574	605.456499545573	1
0	4594	607.956499545573	0
0	4631	612.835561722197	1
0	4632	612.835561722197	2
0	4645	613.905933495635	1
0	4667	616.405933495635	0
0	4676	617.869443105684	1
0	4684	618.905933495635	0
0	4804	637.114538957088	1
0	4812	638.621622481083	2
0	4817	639.466543215387	1
0	4826	641.966543215387	0
0	4848	644.077016409202	1
0	4850	644.466543215387	0
0	4856	644.482953235651	1
0	4867	646.966543215387	0
0	4931	660.180038076991	1
0	4941	660.561209981897	2
0	4949	661.819845720793	1
0	4971	664.319845720793	0
0	5041	672.35035985422	1
0	5051	674.85035985422	0
0	5101	681.827203385815	1
0	5116	682.775428708946	0
0	5134	683.679271784137	1
0	5144	685.123599187429	2
0	5146	685.275428708946	1
0	5166	687.775428708946	0
0	5321	706.639173610359	1
0	5330	707.239082032672	2
0	5334	708.381454853769	1
0	5341	708.495713885106	2
0	5358	710.881454853769	1
0	5373	711.775478652031	2
0	5374	711.775478652031	3
0	5378	713.381454853769	2
0	5390	714.402209235404	3
0	5392	715.881454853769	2
0	5398	715.967791193233	3
0	5411	718.381454853769	2
0	5417	718.730330391392	3
0	5428	720.881454853769	2
0	5442	722.00793635987	3
0	5457	723.381454853769	2
0	5474	725.881454853769	1
0	5480	726.241301056908	2
0	5496	728.381454853769	1
0	5510	730.881454853769	0
0	5580	738.013294987043	1
0	5587	740.092906603277	0
0	5617	744.625705919058	1
0	5626	747.125705919058	0
0	5822	777.895523719952	1
0	5824	778.223150948	0
0	5872	784.637058539636	1
0	5880	784.958082260644	2
0	5884	786.496073160534	1
0	5901	787.488552798014	2
0	5911	788.996073160534	1
0	5931	791.496073160534	0
0	5938	791.507128303265	1
0	5953	793.996073160534	0
0	6004	800.166512201834	1
0	6008	800.327196651651	2
0	6019	802.666512201834	1
0	6033	805.166512201834	0
0	6039	805.515172935903	1
0	6053	807.263555961281	2
0	6055	807.666512201834	1
0	6072	809.010847338523	2
0	6082	810.166512201834	1
0	6091	811.740385427837	2
0	6100	812.340058045402	3
0	6101	812.666512201834	2
0	6118	815.166512201834	1
0	6137	817.666512201834	0
0	6153	818.358892988191	1
0	6154	820.166512201834	0
0	6170	820.980246462618	1
0	6174	821.63976708986	2
0	6179	822.166727855167	3
0	6180	822.166727855167	4
0	6181	822.666512201834	3
0	6201	824.549194118268	4
0	6203	825.166512201834	3
0	6220	827.666512201834	2
0	6238	828.983143955751	3
0	6239	830.166512201834	2
0	6262	832.49321510332	3
0	6263	832.666512201834	2
0	6285	833.783350108048	3
0	6294	835.116861050307	4
0	6295	835.166512201834	3
0	6311	836.508992019647	4
0	6315	837.666512201834	3
0	6334	839.911356376698	4
0	6335	840.166512201834	3
0	6341	841.018863255743	4
0	6362	842.666512201834	3
0	6377	845.166512201834	2
0	6388	847.666512201834	1
0	6407	850.166512201834	0
0	6413	850.436204946214	1
0	6425	852.212764587067	2
0	6426	852.666512201834	1
0	6446	854.933998076597	2
0	6448	855.166512201834	1
0	6467	857.666512201834	0
0	6548	872.600973086741	1
0	6553	873.538749503224	0
0	6672	890.921211587533	1
0	6674	891.822397724669	0
0	6684	892.556619696172	1
0	6688	894.322397724669	0
0	6782	906.850895970791	1
0	6797	909.350895970791	0
0	6807	910.330366886497	1
0	6814	911.029429743788	2
0	6815	911.029429743788	3
0	6826	911.850895970791	2
0	6848	914.350895970791	1
0	6863	916.850895970791	0
0	6883	919.262897184355	1
0	6885	919.350895970791	0
0	6894	920.485722330063	1
0	6902	921.850895970791	0
0	6911	923.372810499839	1
0	6916	924.350895970791	0
0	6925	925.330270499896	1
0	6926	925.330270499896	2
0	6934	925.952226498513	3
0	6938	926.850895970791	2
0	6944	929.350895970791	1
0	6957	931.850895970791	0
0	6963	933.121979218686	1
0	6974	934.350895970791	0
0	6981	935.227197463441	1
0	6988	936.850895970791	0
0	6994	936.880164898882	1
0	7005	938.08500711909	2
0	7009	939.350895970791	1
0	7021	940.409553029884	2
0	7023	941.850895970791	1
0	7047	944.350895970791	0
0	7065	945.35683762321	1
0	7069	946.850895970791	0
0	7099	950.292380036147	1
0	7114	952.792380036147	0
0	7126	953.945559735243	1
0	7133	955.292380036147	0
0	7140	955.5904542038	1
0	7155	957.792380036147	0
0	7162	958.037909280481	1
0	7177	959.755414259152	2
0	7179	960.292380036147	1
0	7194	962.277516272152	2
0	7199	962.334393011827	3
0	7200	962.334393011827	4
0	7201	962.792380036147	3
0	7219	964.353090136302	4
0	7223	965.292380036147	3
0	7236	966.072110729893	4
0	7245	967.792380036147	3
0	7262	970.292380036147	2
0	7289	972.792380036147	1
0	7309	975.292380036147	0
0	7324	977.522567573435	1
0	7326	977.792380036147	0
0	7335	979.144901781677	1
0	7345	980.292380036147	0
0	7351	981.187142844916	1
0	7362	982.792380036147	0
0	7369	983.030508932033	1
0	7378	984.996991749611	2
0	7383	985.292380036147	1
0	7395	986.519009062792	2
0	7402	987.792380036147	1
0	7408	988.448561070672	2
0	7409	988.448561070672	3
0	7422	990.292380036147	2
0	7428	991.427133489012	3
0	7438	992.792380036147	2
0	7473	995.274125999712	3
0	7475	995.292380036147	2
0	7495	997.792380036147	1
0	7515	999.324840974664	2
0	7520	1000.292380036147	1
0	7529	1002.792380036147	0
0	7535	1003.082763274877	1
0	7543	1005.119098098448	2
0	7545	1005.292380036147	1
0	7562	1007.792380036147	0
0	7568	1008.260267268485	1
0	7584	1010.292380036147	0
0	7673	1024.588751894834	1
0	7678	1025.407572449207	0
0	7695	1026.618543677295	1
0	7699	1027.042594219926	2
0	7707	1027.907572449207	1
0	7727	1030.407572449207	0
0	7773	1034.534655935196	1
0	7787	1036.142956359732	0
0	7854	1042.954538373158	1
0	7858	1044.293081869266	0
0	7870	1045.155954282882	1
0	7875	1046.793081869266	0
0	7881	1047.103797027476	1
0	7897	1049.293081869266	0
0	7921	1051.947326436098	1
0	7926	1052.289018544727	2
0	7933	1052.862527438355	3
0	7934	1052.862527438355	4
0	7942	1053.642868300309	5
0	7949	1054.436522625083	4
0	7967	1056.146529619026	5
0	7968	1056.936522625083	4
0	7982	1059.436522625083	3
0	8000	1060.517027468068	4
0	8007	1061.936522625083	3
0	8016	1063.027334124787	4
0	8026	1064.436522625083	3
0	8048	1066.936522625083	2
0	8070	1069.436522625083	1
0	8076	1070.286276230233	2
0	8090	1071.936522625083	1
0	8104	1074.436522625083	0
0	8110	1074.686605508709	1
0	8111	1074.686605508709	2
0	8120	1075.443466658723	3
0	8131	1076.936522625083	2
0	8155	1079.436522625083	1
0	8175	1081.936522625083	0
0	8231	1086.814561394301	1
0	8235	1086.827220212164	2
0	8236	1086.827220212164	3
0	8250	1088.406484146375	2
0	8262	1090.386833818194	3
0	8263	1090.386833818194	4
0	8270	1090.906484146375	3
0	8287	1093.406484146375	2
0	8301	1095.906484146375	1
0	8315	1098.406484146375	0
0	8389	1106.392126202342	1
0	8394	1106.698275767021	0
0	8406	1107.437386271558	1
0	8412	1108.454848297934	2
0	8416	1109.198275767021	1
0	8422	1109.247937640911	2
0	8423	1109.247937640911	3
0	8435	1111.698275767021	2
0	8452	1114.198275767021	1
0	8474	1116.698275767021	0
0	8531	1123.549960501929	1
0	8532	1123.716897413051	0
0	8573	1130.085109682394	1
0	8580	1132.585109682394	0
0	8761	1165.095747034063	1
0	8769	1165.817349249311	0
0	8814	1171.567520212366	1
0	8820	1171.784808728409	0
0	8938	1188.084993092428	1
0	8939	1189.414926936498	0
0	8956	1191.322811771589	1
0	8958	1191.914926936498	0
0	8992	1196.603701246509	1
0	9007	1198.436566751952	0
0	9091	1208.626559563677	1
0	9098	1208.900570849741	0
0	9108	1209.469800346961	1
0	9118	1211.400570849741	0
0	9152	1214.769543761554	1
0	9162	1216.600473154883	0
0	9192	1219.548306446064	1
0	9197	1220.039902919011	2
0	9209	1222.048306446064	1
0	9226	1224.010757426085	2
0	9232	1224.012397614699	3
0	9236	1224.548306446064	2
0	9249	1226.463001787989	3
0	9253	1227.048306446064	2
0	9262	1228.750749128134	3
0	9274	1229.508527761596	4
0	9275	1229.548306446064	3
0	9284	1232.048306446064	2
0	9297	1234.548306446064	1
0	9313	1235.469939164958	2
0	9319	1237.048306446064	1
0	9336	1239.548306446064	0
0	9362	1241.987533549731	1
0	9363	1242.048306446064	0
0	9408	1246.637657614188	1
0	9412	1247.320974773318	0
0	9465	1253.344521904365	1
0	9476	1253.822894909312	2
0	9481	1255.010825936385	1
0	9495	1257.510825936385	0
0	9505	1259.582428784099	1
0	9509	1260.010825936385	0
0	9543	1266.087541888035	1
0	9550	1267.566968007293	2
0	9556	1267.99046167255	3
0	9566	1268.587541888035	2
0	9573	1269.699793442272	3
0	9580	1271.087541888035	2
0	9589	1273.587541888035	1
0	9601	1274.26628333563	2
0	9605	1276.087541888035	1
0	9632	1278.587541888035	0
0	9737	1292.926124847423	1
0	9740	1292.963197773483	0
0	9749	1294.415240219275	1
0	9760	1295.463197773483	0
0	9890	1313.835275088157	1
0	9891	1314.547371995189	0
0	9953	1326.022343340916	1
0	9957	1326.579736620036	0
0	9969	1328.022427720781	1
0	9970	1328.022427720781	2
0	9974	1329.079736620036	1
0	9989	1330.659948724363	2
0	9995	1331.579736620036	1
0	10015	1332.832522713572	2
0	10017	1334.079736620036	1
0	10047	1336.579736620036	0
0	10071	1338.257872835034	1
0	10072	1339.079736620036	0
0	10078	1339.680186113545	1
0	10092	1341.579736620036	0
0	10098	1341.831252428156	1
0	10116	1344.079736620036	0
0	10126	1344.547563440326	1
0	10139	1345.408396637994	2
0	10140	1345.408396637994	3
0	10141	1346.579736620036	2
0	10150	1349.079736620036	1
0	10156	1349.529883157929	2
0	10161	1351.579736620036	1
0	10177	1354.079736620036	0
0	10195	1356.049705145064	1
0	10199	1356.579736620036	0
0	10211	1357.663643861669	1
0	10223	1359.079736620036	0
0	10260	1363.452934861106	1
0	10261	1363.452934861106	2
0	10268	1364.389020119468	1
0	10285	1366.889020119468	0
0	10356	1374.664331365478	1
0	10366	1376.5283105059	0
0	10379	1378.273989085017	1
0	10383	1379.0283105059	0
0	10390	1379.318286542364	1
0	10400	1381.5283105059	0
0	10406	1381.997308211762	1
0	10411	1384.0283105059	0
0	10420	1384.678810477572	1
0	10440	1386.5283105059	0
0	10551	1399.751418933583	1
0	10566	1402.145160445349	0
0	10732	1419.767006871477	1
0	10748	1420.67534883343	2
0	10749	1420.67534883343	3
0	10753	1421.813300092524	2
0	10775	1423.440803256431	3
0	10785	1424.313300092524	2
0	10797	1425.597798015263	3
0	10810	1426.813300092524	2
0	10836	1428.768451078494	3
0	10840	1429.313300092524	2
0	10847	1429.686096090586	3
0	10874	1431.466136484099	4
0	10875	1431.813300092524	3
0	10890	1434.313300092524	2
0	10908	1435.428476210804	3
0	10909	1436.813300092524	2
0	10931	1439.313300092524	1
0	10946	1440.521982179702	2
0	10951	1441.813300092524	1
0	10965	1444.313300092524	0
0	10992	1446.098466614534	1
0	10993	1446.098466614534	2
0	10997	1446.15048916201	3
0	10999	1446.813300092524	2
0	11024	1449.313300092524	1
0	11037	1449.560404728028	2
0	11059	1451.813300092524	1
0	11079	1454.313300092524	0
0	11153	1463.926006605395	1
0	11159	1464.298467400248	2
0	11163	1465.19903255422	1
0	11179	1467.223842365427	2
0	11183	1467.69903255422	1
0	11192	1469.228820974174	2
0	11197	1470.19903255422	1
0	11206	1470.969644637716	2
0	11217	1472.010580931942	3
0	11221	1472.69903255422	2
0	11236	1475.19903255422	1
0	11256	1477.487139558775	2
0	11260	1477.69903255422	1
0	11277	1480.19903255422	0
0	11292	1481.452505167982	1
0	11299	1482.69903255422	0
0	11373	1492.469811244735	1
0	11390	1494.969811244735	0
0	11479	1506.343028587328	1
0	11494	1507.542417634098	2
0	11501	1508.113447642365	3
0	11503	1508.459020198023	2
0	11509	1508.75976890423	3
0	11510	1508.75976890423	4
0	11525	1510.959020198023	3
0	11538	1511.970108441063	4
0	11550	1513.459020198023	3
0	11569	1515.782082950903	4
0	11570	1515.959020198023	3
0	11590	1518.265974648163	4
0	11592	1518.459020198023	3
0	11612	1520.959020198023	2
0	11629	1523.459020198023	1
0	11636	1525.437041889534	2
0	11643	1525.959020198023	1
0	11649	1527.421167964851	2
0	11657	1528.459020198023	1
0	11677	1530.44989858909	2
0	11681	1530.959020198023	1
0	11695	1533.459020198023	0
0	11702	1533.982966008953	1
0	11721	1535.086138631	2
0	11722	1535.959020198023	1
0	11731	1538.459020198023	0
0	11740	1540.307534809952	1
0	11742	1540.959020198023	0
0	11864	1563.267364930242	1
0	11871	1564.090883900653	0
0	11927	1570.38691248423	1
0	11931	1571.079904839351	0
0	12089	1590.946739979132	1
0	12092	1591.217710121164	0
0	12105	1591.450882694331	1
0	12118	1593.717710121164	0
0	12170	1599.700376595809	1
0	12178	1600.471045473057	0
0	12395	1625.798880036571	1
0	12400	1627.09802785212	2
0	12410	1628.298880036571	1
0	12416	1628.438367104678	2
0	12430	1630.647437059619	3
0	12431	1630.647437059619	4
0	12432	1630.798880036571	3
0	12441	1633.298880036571	2
0	12457	1634.943773122854	3
0	12462	1635.007180046205	4
0	12464	1635.798880036571	3
0	12493	1638.235234437117	4
0	12494	1638.298880036571	3
0	12524	1640.798880036571	2
0	12531	1641.297543374758	3
0	12544	1643.298880036571	2
0	12561	1645.798880036571	1
0	12586	1648.128837415333	2
0	12588	1648.298880036571	1
0	12605	1650.798880036571	0
0	12612	1651.022671387289	1
0	12630	1653.298880036571	0
0	12639	1653.695597033538	1
0	12647	1655.798880036571	0
0	12656	1656.543641584533	1
0	12657	1656.543641584533	2
0	12661	1656.86580730384	3
0	12669	1657.847998283309	4
0	12671	1658.298880036571	3
0	12685	1660.798880036571	2
0	12692	1661.060933048379	3
0	12699	1662.061311725053	4
0	12707	1663.298880036571	3
0	12716	1664.654082777541	4
0	12724	1664.934736836427	5
0	12726	1665.798880036571	4
0	12733	1666.370611900034	5
0	12745	1668.298880036571	4
0	12758	1670.274001721777	5
0	12769	1670.798880036571	4
0	12784	1673.298880036571	3
0	12803	1675.798880036571	2
0	12817	1678.298880036571	1
0	12828	1679.201716183199	2
0	12839	1680.798880036571	1
0	12854	1683.040836901462	2
0	12856	1683.298880036571	1
0	12875	1685.798880036571	0
0	12973	1696.700871184618	1
0	12981	1697.685855712952	0
0	12987	1698.215778145753	1
0	13006	1700.185855712952	0
0	13069	1704.87705083283	1
0	13071	1705.912119448628	0
0	13104	1707.858441913205	1
0	13110	1708.35962153474	2
0	13111	1708.412119448628	1
0	13125	1708.681301419397	2
0	13126	1708.681301419397	3
0	13136	1710.912119448628	2
0	13160	1712.669118900662	3
0	13166	1713.412119448628	2
0	13181	1715.912119448628	1
0	13191	1716.389578463299	2
0	13206	1718.412119448628	1
0	13240	1720.778861862555	2
0	13241	1720.912119448628	1
0	13250	1721.64107946625	2
0	13251	1721.64107946625	3
0	13263	1723.412119448628	2
0	13280	1725.912119448628	1
0	13305	1728.412119448628	0
0	13407	1739.25250602747	1
0	13420	1740.917359950547	0
0	13436	1742.276791033897	1
0	13440	1743.417359950547	0
0	13563	1756.989760840795	1
0	13578	1758.032341102618	2
0	13580	1758.398921411847	1
0	13592	1760.898921411847	0
0	13827	1799.327250824273	1
0	13834	1799.659257023792	0
0	13846	1801.840043662599	1
0	13854	1802.159257023792	0
0	13950	1815.927941895681	1
0	13959	1818.427941895681	0
0	13968	1819.492672988431	1
0	13973	1819.654057944716	2
0	13978	1820.212563629336	3
0	13980	1820.927941895681	2
0	13989	1821.763735302775	3
0	13998	1822.180454934842	4
0	14004	1823.427941895681	3
0	14028	1825.927941895681	2
0	14044	1827.671507959224	3
0	14055	1828.427941895681	2
0	14077	1830.927941895681	1
0	14083	1831.106215818426	2
0	14099	1833.427941895681	1
0	14126	1835.927941895681	0
0	14132	1836.073330948762	1
0	14156	1838.427941895681	0
0	14461	1877.377106476706	1
0	14473	1879.877106476706	0
0	14479	1880.367995669496	1
0	14480	1880.367995669496	2
0	14487	1882.377106476706	1
0	14503	1884.877106476706	0
0	14515	1885.637674479173	1
0	14520	1887.377106476706	0
0	14526	1887.616584223482	1
0	14539	1889.877106476706	0
0	14546	1890.296316511399	1
0	14550	1892.377106476706	0
0	14568	1893.228652742935	1
0	14569	1894.877106476706	0
0	14575	1894.898587697645	1
0	14591	1897.006657134443	2
0	14593	1897.377106476706	1
0	14602	1898.169613910117	2
0	14603	1898.169613910117	3
0	14608	1898.823561997378	4
0	14615	1899.877106476706	3
0	14621	1900.086105925944	4
0	14629	1902.377106476706	3
0	14643	1904.877106476706	2
0	14660	1907.377106476706	1
0	14673	1908.768702895349	2
0	14674	1909.877106476706	1
0	14685	1911.261615236898	2
0	14700	1912.377106476706	1
0	14717	1914.877106476706	0
0	14738	1915.559411689728	1
0	14745	1916.571441311366	2
0	14747	1917.377106476706	1
0	14781	1919.768108233315	2
0	14782	1919.877106476706	1
0	14792	1920.919915666737	2
0	14800	1921.305852958203	3
0	14807	1922.165408658615	4
0	14809	1922.377106476706	3
0	14824	1923.129348262066	4
0	14832	1923.852265710151	5
0	14836	1924.877106476706	4
0	14856	1927.377106476706	3
0	14876	1929.877106476706	2
0	14893	1932.377106476706	1
0	14910	1934.877106476706	0
0	14917	1935.773706522256	1
0	14922	1936.158765053647	2
0	14929	1937.377106476706	1
0	14943	1939.877106476706	0
0	14952	1940.426093837437	1
0	14965	1942.377106476706	0
0	14972	1942.49736623269	1
0	14982	1944.877106476706	0
0	15074	1957.993528914414	1
0	15075	1958.060909263151	0
0	15089	1959.407391632643	1
0	15097	1960.122527777232	2
0	15099	1960.560909263151	1
0	15129	1963.060909263151	0
0	15168	1966.11875714549	1
0	15179	1968.553643650144	0
0	15191	1970.254412615411	1
0	15192	1970.254412615411	2
0	15196	1971.053643650144	1
0	15210	1973.553643650144	0
0	15264	1983.230841624974	1
0	15273	1984.108264573635	2
0	15278	1985.730841624974	1
0	15287	1986.875584996239	2
0	15297	1988.230841624974	1
0	15317	1989.480613022551	2
0	15321	1990.730841624974	1
0	15341	1993.230841624974	0
0	15407	1998.852114691998	1
0	15422	2001.088687139074	0
0	15452	2002.763554316939	1
0	15453	2002.763554316939	2
0	15457	2003.588687139074	1
0	15474	2006.088687139074	0
0	15494	2007.670200562653	1
0	15499	2008.588687139074	0
0	15562	2013.014777583646	1
0	15574	2014.08443209819	2
0	15575	2014.215913445379	1
0	15595	2016.715913445379	0
0	15609	2017.723485612981	1
0	15630	2019.215913445379	0
0	15643	2020.695498474434	1
0	15650	2021.715913445379	0
0	15659	2022.757868587114	1
0	15660	2022.757868587114	2
0	15672	2023.242107675548	3
0	15677	2024.215913445379	2
0	15690	2026.074047496469	3
0	15697	2026.619116226795	4
0	15699	2026.715913445379	3
0	15713	2028.691156195737	4
0	15726	2029.215913445379	3
0	15740	2030.602924612185	4
0	15753	2031.715913445379	3
0	15763	2033.124665463587	4
0	15768	2033.842351622161	5
0	15775	2034.215913445379	4
0	15782	2034.702407325558	5
0	15794	2036.715913445379	4
0	15801	2038.2813547956	5
0	15811	2039.215913445379	4
0	15841	2041.715913445379	3
0	15866	2044.215913445379	2
0	15883	2046.715913445379	1
0	15895	2049.215913445379	0
0	15951	2055.006645143139	1
0	15968	2056.656529084709	2
0	15974	2057.506645143139	1
0	15994	2060.006645143139	0
0	16001	2060.554344555302	1
0	16016	2062.506645143139	0
0	16037	2064.440547373063	1
0	16038	2065.006645143139	0
0	16085	2070.18367386605	1
0	16091	2070.513734111413	2
0	16101	2072.43948990164	1
0	16115	2074.93948990164	0
0	16121	2075.883462647581	1
0	16129	2077.43948990164	0
0	16213	2091.179146981717	1
0	16223	2093.516123326494	0
0	16332	2110.438695716047	1
0	16339	2112.434179518258	0
0	16415	2122.762146770938	1
0	16421	2123.491686136202	0
0	16461	2129.674890089795	1
0	16464	2130.913297615748	0
0	16473	2131.543955786231	1
0	16489	2132.848886633542	2
0	16490	2133.413297615748	1
0	16512	2135.913297615748	0
0	16605	2148.928843331701	1
0	16621	2150.723034671095	2
0	16622	2150.84710472887	1
0	16642	2153.34710472887	0
0	16657	2154.713171449318	1
0	16658	2154.713171449318	2
0	16659	2155.84710472887	1
0	16665	2158.34710472887	0
0	16682	2158.891476669123	1
0	16690	2160.434331081853	2
0	16691	2160.84710472887	1
0	16716	2163.23028634082	2
0	16718	2163.34710472887	1
0	16736	2164.120514776953	2
0	16748	2165.206984900639	3
0	16750	2165.84710472887	2
0	16756	2166.004543111321	3
0	16774	2168.34710472887	2
0	16796	2170.84710472887	1
0	16814	2173.03630448718	2
0	16826	2173.34710472887	1
0	16852	2175.719162977625	2
0	16856	2175.84710472887	1
0	16881	2178.34710472887	0
0	16893	2179.757446983985	1
0	16901	2180.84710472887	0
0	16923	2183.650773055091	1
0	16933	2186.150773055091	0
0	16946	2186.791437469474	1
0	16959	2187.926847713209	2
0	16965	2188.650773055091	1
0	16993	2190.587925821843	2
0	16998	2190.935857493536	3
0	17000	2191.150773055091	2
0	17020	2193.650773055091	1
0	17036	2194.763241878921	2
0	17045	2196.150773055091	1
0	17061	2196.868825757994	2
0	17068	2198.443317810447	3
0	17069	2198.443317810447	4
0	17070	2198.650773055091	3
0	17096	2200.186665199614	4
0	17100	2200.257771490485	5
0	17105	2201.150773055091	4
0	17121	2202.388437068682	5
0	17125	2203.650773055091	4
0	17149	2205.911046947229	5
0	17150	2206.150773055091	4
0	17170	2208.462303153718	5
0	17172	2208.650773055091	4
0	17185	2209.467379682679	5
0	17192	2210.847999719235	6
0	17197	2211.150773055091	5
0	17212	2212.48255226063	6
0	17221	2213.650773055091	5
0	17238	2216.150773055091	4
0	17268	2218.650773055091	3
0	17283	2220.388790945546	4
0	17285	2221.150773055091	3
0	17312	2223.650773055091	2
0	17318	2223.924370932712	3
0	17329	2225.054197564976	4
0	17330	2225.054197564976	5
0	17334	2226.150773055091	4
0	17340	2226.456063830801	5
0	17348	2228.650773055091	4
0	17365	2229.013811748951	5
0	17381	2229.630172004349	6
0	17382	2231.150773055091	5
0	17406	2232.224136683386	6
0	17412	2233.650773055091	5
0	17432	2236.150773055091	4
0	17452	2238.650773055091	3
0	17474	2241.150773055091	2
0	17486	2243.650773055091	1
0	17497	2246.150773055091	0