version 3
run k_MM1_rand-30-20221127-16:03:22-5740
attr configname k_MM1_rand
attr datetime 20221127-16:03:22
attr datetimef 20221127-160322
attr experiment k_MM1_rand
attr inifile omnetpp.ini
attr iterationvars "$time=2.5, $num=5, $0=47853, $1=24674, $2=96433"
attr iterationvarsd time=2.5/num=5/47853/24674/96433
attr iterationvarsf time=2.5,num=5,47853,24674,96433-
attr measurement "$time=2.5, $num=5, $0=47853, $1=24674, $2=96433"
attr network randkMM1
attr processid 5740
attr repetition 2
attr replication #2
attr resultdir results
attr runnumber 30
attr seedset 30
itervar num 5
itervar time 2.5
config description "MM1 module k-times random"
config network randkMM1
config **.source.interArrivalTime "truncnormal(0.5s, 1.5s)"
config **.serviceTime 2.5s
config **.c 5
config **.capacity 10000
config record-eventlog false
config **.scalar-recording true
config **.vector-recording true
config repeat 4
config seed-1-mt 47853
config seed-2-mt 24674
config seed-3-mt 96433
config output-vector-file k_MM1_rand-5-2.5-results/2.vec
config output-scalar-file k_MM1_rand-5-2.5-results/2.sca

vector 0 randkMM1.mm1[4] queueLength:vector ETV
attr interpolationmode none
attr recordingmode vector
attr title "queue length"
vector 1 randkMM1.mm1[4] util:vector ETV
attr interpolationmode none
attr recordingmode vector
attr title resources
vector 2 randkMM1.mm1[0] util:vector ETV
attr interpolationmode none
attr recordingmode vector
attr title resources
vector 3 randkMM1.mm1[2] queueLength:vector ETV
attr interpolationmode none
attr recordingmode vector
attr title "queue length"
vector 4 randkMM1.mm1[3] util:vector ETV
attr interpolationmode none
attr recordingmode vector
attr title resources
vector 5 randkMM1.mm1[2] util:vector ETV
attr interpolationmode none
attr recordingmode vector
attr title resources
vector 6 randkMM1.mm1[0] queueLength:vector ETV
attr interpolationmode none
attr recordingmode vector
attr title "queue length"
vector 7 randkMM1.mm1[1] util:vector ETV
attr interpolationmode none
attr recordingmode vector
attr title resources
vector 8 randkMM1.mm1[3] queueLength:vector ETV
attr interpolationmode none
attr recordingmode vector
attr title "queue length"
vector 9 randkMM1.mm1[1] queueLength:vector ETV
attr interpolationmode none
attr recordingmode vector
attr title "queue length"
0	10	12.369494888431	1
0	11	12.5	0
0	39	17.970495915715	1
0	45	20.331722957732	0
0	112	29.238819916179	1
0	114	29.396567518254	0
0	133	30.472493956062	1
0	134	31.896567518254	0
0	232	45.758735479862	1
0	250	48.258735479862	0
0	333	57.969089008838	1
0	337	59.30077185571	0
0	353	61.318634453526	1
0	359	61.80077185571	0
0	391	66.567708027336	1
0	414	67.74561959692	2
0	419	69.067708027336	1
0	429	69.357598693639	2
0	444	71.567708027336	1
0	464	74.067708027336	0
0	474	74.329239196352	1
0	482	76.116104062619	2
0	488	76.567708027336	1
0	510	79.067708027336	0
0	547	84.213133926412	1
0	549	84.637530662915	0
0	600	91.560999816141	1
0	610	93.309073533637	0
0	728	106.121874673437	1
0	738	106.763993719518	2
0	740	107.32990996051	1
0	753	108.233041767473	2
0	760	109.82990996051	1
0	772	111.540326165297	2
0	774	112.32990996051	1
0	788	114.82990996051	0
0	846	121.329500486882	1
0	851	121.919867694248	0
0	871	123.810316246162	1
0	876	124.419867694248	0
0	1001	142.998622882489	1
0	1003	143.685413806424	0
0	1022	145.495441849038	1
0	1023	146.185413806424	0
0	1033	146.927430910189	1
0	1045	148.63653395311	2
0	1047	148.685413806424	1
0	1061	151.185413806424	0
0	1189	169.484415793894	1
0	1209	171.984415793894	0
0	1357	189.092721900289	1
0	1358	189.092721900289	2
0	1363	189.997764516024	3
0	1381	191.19819028571	2
0	1398	193.69819028571	1
0	1418	196.19819028571	0
0	1437	196.821125370309	1
0	1438	196.821125370309	2
0	1448	198.69819028571	1
0	1475	201.19819028571	0
0	1544	208.707507859508	1
0	1552	209.810322010604	0
0	1562	210.747088599259	1
0	1569	212.310322010604	0
0	1608	215.093774431757	1
0	1621	217.456729129298	0
0	1641	219.612571151135	1
0	1643	219.956729129298	0
0	1678	223.733444030861	1
0	1688	226.233444030861	0
0	1740	231.638172350345	1
0	1752	232.841173989401	0
0	1760	233.484766046008	1
0	1761	233.484766046008	2
0	1781	235.341173989401	1
0	1795	237.841173989401	0
0	1802	239.125962324439	1
0	1812	240.341173989401	0
0	1822	241.940690085674	1
0	1826	242.841173989401	0
0	1859	247.136585439836	1
0	1872	249.073987660499	0
0	1887	250.26913041771	1
0	1900	251.363757515201	2
0	1901	251.363757515201	3
0	1902	251.573987660499	2
0	1921	254.073987660499	1
0	1935	256.573987660499	0
0	1953	257.977483894915	1
0	1954	257.977483894915	2
0	1959	258.578165541348	3
0	1960	259.073987660499	2
0	1971	261.573987660499	1
0	1977	261.838237029098	2
0	1993	264.073987660499	1
0	2002	264.703485339087	2
0	2003	264.703485339087	3
0	2012	266.573987660499	2
0	2029	268.003165991357	3
0	2030	268.003165991357	4
0	2036	269.073987660499	3
0	2061	271.573987660499	2
0	2078	273.059708382292	3
0	2088	274.073987660499	2
0	2108	276.573987660499	1
0	2121	278.20630095771	2
0	2128	279.073987660499	1
0	2138	281.009112541512	2
0	2142	281.573987660499	1
0	2152	283.217443402568	2
0	2153	284.073987660499	1
0	2159	286.573987660499	0
0	2169	287.293485233961	1
0	2173	287.433563412471	2
0	2180	289.073987660499	1
0	2197	291.573987660499	0
0	2203	291.710782107732	1
0	2223	293.958516931264	2
0	2224	294.073987660499	1
0	2246	296.573987660499	0
0	2262	298.054554544877	1
0	2263	299.073987660499	0
0	2310	304.903750486876	1
0	2311	304.903750486876	2
0	2319	305.57654863771	3
0	2327	306.579254206538	2
0	2343	309.079254206538	1
0	2362	310.712460337861	2
0	2364	311.579254206538	1
0	2389	314.079254206538	0
0	2407	315.997399804856	1
0	2416	316.579254206538	0
0	2453	320.658533068969	1
0	2458	322.902771559512	0
0	2483	324.089147389837	1
0	2484	324.089147389837	2
0	2485	325.402771559512	1
0	2506	325.843906615889	2
0	2515	327.902771559512	1
0	2532	330.402771559512	0
0	2546	331.468277063978	1
0	2555	332.077665723739	2
0	2559	332.902771559512	1
0	2577	335.29607615291	2
0	2579	335.402771559512	1
0	2589	336.619227225948	2
0	2593	337.025782611421	3
0	2603	337.902771559512	2
0	2612	339.354669464828	3
0	2620	340.402771559512	2
0	2650	342.270657283359	3
0	2652	342.902771559512	2
0	2667	345.402771559512	1
0	2688	347.129116438577	2
0	2689	347.902771559512	1
0	2698	348.444660429485	2
0	2699	348.444660429485	3
0	2706	350.402771559512	2
0	2714	352.902771559512	1
0	2741	355.339460167519	2
0	2742	355.339460167519	3
0	2743	355.402771559512	2
0	2755	356.681796737715	3
0	2768	357.902771559512	2
0	2775	358.769333833511	3
0	2788	360.393478408918	4
0	2789	360.393478408918	5
0	2790	360.402771559512	4
0	2807	362.902771559512	3
0	2821	365.402771559512	2
0	2850	367.902771559512	1
0	2872	370.402771559512	0
0	2879	371.041139648422	1
0	2886	371.915302957138	2
0	2887	371.915302957138	3
0	2894	372.902771559512	2
0	2910	375.040299460278	3
0	2911	375.402771559512	2
0	2930	377.902771559512	1
0	2940	378.96775026625	2
0	2952	380.402771559512	1
0	2958	381.439666333152	2
0	2972	382.902771559512	1
0	2991	385.402771559512	0
0	3051	395.667561176299	1
0	3052	396.190995041991	0
0	3127	406.178712186602	1
0	3128	406.178712186602	2
0	3135	407.667732628183	1
0	3145	408.143148450172	2
0	3146	410.167732628183	1
0	3162	412.667732628183	0
0	3356	438.325578897161	1
0	3371	440.825578897161	0
0	3377	442.012180911342	1
0	3395	443.325578897161	0
0	3437	448.457186490739	1
0	3440	448.486945335272	0
0	3460	450.234644909242	1
0	3464	450.986945335272	0
0	3489	453.468605873128	1
0	3490	453.468605873128	2
0	3491	453.486945335272	1
0	3506	455.222567127445	2
0	3508	455.986945335272	1
0	3517	458.486945335272	0
0	3584	465.805234258722	1
0	3591	466.543201124285	2
0	3593	467.11651954396	1
0	3617	469.61651954396	0
0	3647	472.967206631832	1
0	3660	474.291624576967	2
0	3670	475.467206631832	1
0	3692	477.967206631832	0
0	3742	482.755108607177	1
0	3753	483.750576527768	0
0	3836	495.768529488846	1
0	3859	498.268529488846	0
0	4031	519.381856216279	1
0	4053	521.881856216279	0
0	4268	556.120061869671	1
0	4283	558.620061869671	0
0	4449	578.914640792861	1
0	4450	578.914640792861	2
0	4457	580.196536981156	3
0	4463	580.920181403816	4
0	4465	581.058662873167	3
0	4486	583.558662873167	2
0	4500	586.058662873167	1
0	4509	588.558662873167	0
0	4567	594.378783803472	1
0	4579	595.931167712478	0
0	4588	596.276481395001	1
0	4596	598.431167712478	0
0	4610	598.697753453637	1
0	4621	600.736649931058	2
0	4623	600.931167712478	1
0	4643	603.431167712478	0
0	4652	603.601617178807	1
0	4653	603.601617178807	2
0	4658	603.790161308828	3
0	4673	605.931167712478	2
0	4695	608.431167712478	1
0	4711	610.136925920781	2
0	4712	610.931167712478	1
0	4726	613.431167712478	0
0	4732	614.754077931656	1
0	4748	615.931167712478	0
0	4955	639.325195037582	1
0	4959	640.499191576396	0
0	5018	648.052348068176	1
0	5026	648.627444890581	0
0	5045	650.862598460329	1
0	5046	650.862598460329	2
0	5053	651.127444890581	1
0	5075	653.627444890581	0
0	5088	655.068634284344	1
0	5097	656.127444890581	0
0	5119	658.147779626195	1
0	5129	658.627444890581	0
0	5221	670.1568335438	1
0	5225	670.583646524201	0
0	5323	684.081272638735	1
0	5324	684.081272638735	2
0	5331	685.498148752859	1
0	5340	686.059254328494	2
0	5358	687.998148752859	1
0	5378	689.923395506223	2
0	5383	690.467465916001	3
0	5385	690.498148752859	2
0	5405	692.998148752859	1
0	5417	695.498148752859	0
0	5427	696.279699822474	1
0	5431	697.998148752859	0
0	5481	705.818798273138	1
0	5494	708.153288637319	0
0	5506	709.456647462155	1
0	5511	710.653288637319	0
0	5545	715.143793499638	1
0	5549	715.72942932412	0
0	5559	717.050029233602	1
0	5566	718.22942932412	0
0	5587	721.73608631685	1
0	5592	722.280386129724	2
0	5604	724.23608631685	1
0	5618	726.73608631685	0
0	5625	727.653689145252	1
0	5645	729.23608631685	0
0	5651	729.552651334039	1
0	5667	731.73608631685	0
0	5734	741.326563515018	1
0	5740	741.4387683728	2
0	5741	741.951537311337	1
0	5758	744.451537311337	0
0	5768	745.335515256065	1
0	5780	746.951537311337	0
0	5796	749.312526249772	1
0	5802	749.451537311337	0
0	5809	749.473585178604	1
0	5829	751.951537311337	0
0	5879	757.175655579943	1
0	5884	757.318229086463	2
0	5885	757.318229086463	3
0	5887	757.40158559125	2
0	5901	759.90158559125	1
0	5917	761.157947106917	2
0	5918	761.157947106917	3
0	5925	762.40158559125	2
0	5934	763.369157737289	3
0	5952	764.90158559125	2
0	5972	766.621764387335	3
0	5977	767.40158559125	2
0	5993	769.220472209202	3
0	5997	769.90158559125	2
0	6019	772.40158559125	1
0	6033	774.90158559125	0
0	6047	776.568512143925	1
0	6055	777.40158559125	0
0	6107	786.074733983491	1
0	6116	788.574733983491	0
0	6127	789.706206662839	1
0	6145	791.074733983491	0
0	6154	791.956708795159	1
0	6155	791.956708795159	2
0	6165	793.574733983491	1
0	6175	794.288986418105	2
0	6179	796.074733983491	1
0	6190	798.574733983491	0
0	6390	826.998487721283	1
0	6398	827.77168068021	0
0	6407	829.167423471483	1
0	6415	830.27168068021	0
0	6457	836.574572302982	1
0	6477	837.017209394552	2
0	6495	838.07026362008	3
0	6505	838.732370861948	2
0	6525	841.232370861948	1
0	6537	843.732370861948	0
0	6763	872.735875440902	1
0	6777	874.033625944955	0
0	6836	881.534092122249	1
0	6852	883.055258974556	0
0	6890	887.714195499623	1
0	6891	888.396114135076	0
0	6961	900.421171844834	1
0	6968	901.89113412058	0
0	7233	945.738436622201	1
0	7239	946.01662970229	2
0	7240	946.538066047478	1
0	7262	949.038066047478	0
0	7280	951.181107795411	1
0	7281	951.538066047478	0
0	7326	959.237889679927	1
0	7327	959.237889679927	2
0	7339	960.85336157285	1
0	7353	961.82402918357	2
0	7366	963.35336157285	1
0	7386	964.670029792472	2
0	7396	965.85336157285	1
0	7421	968.35336157285	0
0	7427	969.060970779214	1
0	7443	970.85336157285	0
0	7516	979.889075039109	1
0	7534	982.301347944091	0
0	7824	1016.162491945544	1
0	7830	1017.320412657871	0
0	7836	1017.435051978567	1
0	7841	1017.472500458004	2
0	7865	1019.41180578068	3
0	7866	1019.41180578068	4
0	7867	1019.820412657871	3
0	7885	1022.079540136568	4
0	7887	1022.320412657871	3
0	7899	1022.891927013225	4
0	7904	1024.820412657871	3
0	7911	1024.882277495295	4
0	7919	1025.258186519424	5
0	7929	1026.418612735339	6
0	7934	1027.105254549431	7
0	7936	1027.320412657871	6
0	7948	1029.820412657871	5
0	7960	1030.726608444926	6
0	7962	1032.320412657871	5
0	7976	1034.820412657871	4
0	8001	1036.572629343169	5
0	8003	1037.320412657871	4
0	8021	1038.588227453494	5
0	8025	1038.760185417469	6
0	8030	1039.820412657871	5
0	8042	1042.320412657871	4
0	8051	1043.079519485835	5
0	8059	1043.346778031154	6
0	8064	1044.820412657871	5
0	8081	1047.320412657871	4
0	8107	1048.746991488308	5
0	8108	1049.820412657871	4
0	8114	1049.82478190941	5
0	8127	1052.320412657871	4
0	8136	1052.6533637082	5
0	8144	1054.820412657871	4
0	8158	1057.320412657871	3
0	8180	1059.820412657871	2
0	8193	1060.944994601341	3
0	8194	1062.320412657871	2
0	8210	1064.820412657871	1
0	8222	1065.364713371654	2
0	8235	1066.746513138157	3
0	8236	1066.746513138157	4
0	8237	1067.320412657871	3
0	8252	1069.820412657871	2
0	8269	1071.83294136071	3
0	8271	1072.320412657871	2
0	8283	1073.786102289545	3
0	8288	1074.820412657871	2
0	8307	1077.320412657871	1
0	8321	1079.820412657871	0
0	8333	1081.865409564617	1
0	8340	1082.320412657871	0
0	8372	1086.558319367474	1
0	8389	1088.19802550432	0
0	8402	1090.143664687039	1
0	8406	1090.69802550432	0
0	8451	1098.736427739672	1
0	8454	1098.755735881482	0
0	8490	1103.27974528212	1
0	8491	1103.27974528212	2
0	8493	1104.065381605499	1
0	8506	1106.457486748662	2
0	8508	1106.565381605499	1
0	8515	1107.361356313979	2
0	8532	1109.065381605499	1
0	8557	1111.565381605499	0
0	8630	1124.006643447851	1
0	8631	1124.006643447851	2
0	8635	1125.543760553885	1
0	8645	1125.850169927478	2
0	8656	1128.043760553885	1
0	8668	1130.543760553885	0
0	8837	1154.632635763116	1
0	8849	1157.132635763116	0
0	8859	1159.098138631291	1
0	8860	1159.632635763116	0
0	8869	1161.146598073973	1
0	8874	1162.132635763116	0
0	8888	1164.027334890047	1
0	8893	1164.632635763116	0
0	8902	1166.124917141527	1
0	8910	1167.132635763116	0
0	8974	1176.248026737408	1
0	8981	1177.51057437277	0
0	9120	1195.158168796444	1
0	9124	1195.755765872747	0
0	9156	1200.072941978326	1
0	9161	1200.566381384442	2
0	9166	1201.216489282428	1
0	9188	1203.716489282428	0
0	9199	1204.651076372055	1
0	9212	1206.216489282428	0
0	9420	1233.155281640618	1
0	9427	1234.979665612854	2
0	9432	1235.655281640618	1
0	9441	1237.461266773112	2
0	9449	1237.516092789089	3
0	9451	1238.155281640618	2
0	9468	1239.253798648869	3
0	9472	1239.312035204271	4
0	9484	1240.163031980217	5
0	9485	1240.655281640618	4
0	9512	1243.155281640618	3
0	9518	1243.213310583603	4
0	9519	1243.213310583603	5
0	9537	1245.655281640618	4
0	9544	1245.669842515283	5
0	9562	1248.155281640618	4
0	9581	1250.19228103304	5
0	9582	1250.655281640618	4
0	9594	1252.008312659096	5
0	9599	1252.822151856922	6
0	9601	1253.155281640618	5
0	9621	1255.507535514688	6
0	9623	1255.655281640618	5
0	9632	1258.155281640618	4
0	9642	1259.011980878971	5
0	9646	1260.655281640618	4
0	9652	1260.668901003386	5
0	9653	1260.668901003386	6
0	9664	1261.877662880505	7
0	9670	1263.155281640618	6
0	9684	1265.655281640618	5
0	9690	1265.993825354358	6
0	9691	1265.993825354358	7
0	9696	1266.069081108769	8
0	9701	1266.535409610451	9
0	9713	1268.155281640618	8
0	9733	1270.655281640618	7
0	9743	1271.814851599736	8
0	9747	1273.155281640618	7
0	9761	1275.655281640618	6
0	9775	1278.155281640618	5
0	9804	1280.655281640618	4
0	9819	1282.932060295917	5
0	9821	1283.155281640618	4
0	9830	1283.583444245283	5
0	9835	1283.608299942313	6
0	9843	1285.655281640618	5
0	9855	1286.596853119065	6
0	9860	1288.155281640618	5
0	9866	1288.40094598954	6
0	9879	1290.655281640618	5
0	9896	1293.155281640618	4
0	9903	1293.638094280654	5
0	9920	1295.655281640618	4
0	9926	1295.855547069588	5
0	9927	1295.855547069588	6
0	9935	1296.322429404483	7
0	9945	1298.155281640618	6
0	9955	1298.926427957516	7
0	9962	1300.655281640618	6
0	9968	1301.007006287484	7
0	9969	1301.007006287484	8
0	9974	1302.652159933302	9
0	9981	1303.149621841201	10
0	9982	1303.149621841201	11
0	9983	1303.155281640618	10
0	9994	1305.655281640618	9
0	10000	1305.818349022499	10
0	10005	1308.155281640618	9
0	10019	1310.655281640618	8
0	10026	1311.981907796552	9
0	10033	1313.155281640618	8
0	10045	1314.072457974923	9
0	10054	1315.655281640618	8
0	10066	1316.423027341972	9
0	10071	1318.155281640618	8
0	10077	1318.498813555286	9
0	10078	1318.498813555286	10
0	10090	1320.655281640618	9
0	10101	1323.155281640618	8
0	10108	1323.721732493186	9
0	10118	1325.655281640618	8
0	10127	1326.506637761179	9
0	10137	1328.155281640618	8
0	10159	1330.655281640618	7
0	10176	1333.155281640618	6
0	10193	1335.655281640618	5
0	10209	1338.155281640618	4
0	10223	1340.655281640618	3
0	10233	1340.803622214609	4
0	10234	1343.155281640618	3
0	10256	1345.380404413265	4
0	10258	1345.655281640618	3
0	10278	1347.852212092471	4
0	10283	1348.155281640618	3
0	10290	1348.205132815882	4
0	10308	1350.655281640618	3
0	10330	1353.155281640618	2
0	10350	1355.655281640618	1
0	10367	1358.155281640618	0
0	10389	1360.567609114544	1
0	10391	1360.655281640618	0
0	10462	1367.51297475087	1
0	10474	1370.01297475087	0
0	10489	1370.977504054891	1
0	10496	1372.51297475087	0
0	10542	1379.031609449744	1
0	10546	1379.184343723848	0
0	10555	1380.501500121153	1
0	10565	1381.684343723848	0
0	10659	1393.845149983397	1
0	10660	1393.845149983397	2
0	10667	1394.951322228986	1
0	10681	1397.451322228986	0
0	10733	1405.484263425887	1
0	10753	1406.644069406741	2
0	10754	1407.417080798809	1
0	10764	1408.622072632597	2
0	10776	1409.917080798809	1
0	10806	1412.417080798809	0
0	10825	1414.478337941427	1
0	10826	1414.917080798809	0
0	10833	1415.074897159487	1
0	10838	1416.202887715161	2
0	10848	1417.417080798809	1
0	10865	1419.917080798809	0
0	10871	1420.462519514455	1
0	10889	1422.417080798809	0
0	10990	1437.536933791394	1
0	10996	1437.953576794392	0
0	11005	1439.005683044582	1
0	11017	1440.431303327693	2
0	11018	1440.453576794392	1
0	11035	1442.953576794392	0
0	11059	1446.097209694773	1
0	11069	1447.900803996962	2
0	11074	1448.597209694773	1
0	11083	1450.51968047913	2
0	11085	1451.097209694773	1
0	11104	1453.597209694773	0
0	11116	1455.620703398857	1
0	11117	1455.620703398857	2
0	11123	1456.097209694773	1
0	11130	1457.507173886214	2
0	11140	1458.597209694773	1
0	11151	1461.097209694773	0
0	11207	1472.140015237526	1
0	11219	1473.717841792881	0
0	11277	1483.002722823882	1
0	11288	1483.211606975856	2
0	11290	1484.765118290727	1
0	11306	1486.145878039446	2
0	11311	1487.174893264301	3
0	11312	1487.265118290727	2
0	11325	1488.775144660794	3
0	11329	1489.765118290727	2
0	11339	1491.159316393159	3
0	11343	1492.265118290727	2
0	11360	1493.949541599096	3
0	11362	1494.765118290727	2
0	11374	1496.823752318686	3
0	11376	1497.265118290727	2
0	11395	1499.765118290727	1
0	11412	1502.265118290727	0
0	11421	1503.29284768581	1
0	11429	1504.765118290727	0
0	11444	1506.005481096217	1
0	11448	1507.265118290727	0
0	11458	1509.294197607268	1
0	11467	1509.765118290727	0
0	11477	1511.650385914606	1
0	11484	1512.265118290727	0
0	11539	1519.913855728452	1
0	11546	1521.3728488729	0
0	11692	1539.111956637472	1
0	11710	1540.68549141183	0
0	11743	1545.75113495275	1
0	11744	1545.982719841252	0
0	11787	1553.153012956158	1
0	11792	1553.969915107328	0
0	11848	1561.059476741989	1
0	11863	1562.329704307743	2
0	11868	1563.559476741989	1
0	11898	1566.059476741989	0
0	11933	1569.807279452297	1
0	11948	1572.307279452297	0
0	11964	1574.432890825567	1
0	11965	1574.807279452297	0
0	12084	1591.040427777793	1
0	12088	1591.493644325483	0
0	12367	1632.473614935722	1
0	12369	1632.632770804105	0
0	12593	1666.593815966028	1
0	12594	1667.01046305291	0
0	12632	1673.890639102191	1
0	12640	1674.349753846078	2
0	12645	1675.243732793822	3
0	12649	1676.390639102191	2
0	12666	1678.890639102191	1
0	12676	1679.508624254262	2
0	12685	1681.390639102191	1
0	12700	1682.395068337957	2
0	12709	1683.890639102191	1
0	12722	1684.76940459913	2
0	12729	1686.26071575313	3
0	12731	1686.390639102191	2
0	12746	1688.890639102191	1
0	12758	1690.805606658089	2
0	12760	1691.390639102191	1
0	12766	1692.925689120881	2
0	12771	1693.890639102191	1
0	12777	1693.990308411192	2
0	12783	1694.322776909887	3
0	12796	1695.914107143449	4
0	12797	1696.390639102191	3
0	12823	1698.824698604518	4
0	12824	1698.890639102191	3
0	12842	1701.343995840053	4
0	12844	1701.390639102191	3
0	12858	1703.890639102191	2
0	12864	1704.338713905278	3
0	12869	1704.457629887399	4
0	12870	1704.457629887399	5
0	12879	1706.390639102191	4
0	12899	1707.934189166033	5
0	12900	1707.934189166033	6
0	12901	1708.890639102191	5
0	12923	1711.390639102191	4
0	12937	1712.471240398766	5
0	12948	1713.890639102191	4
0	12965	1716.390639102191	3
0	12997	1718.890639102191	2
0	13017	1721.390639102191	1
0	13034	1723.890639102191	0
0	13040	1724.679981031323	1
0	13056	1726.390639102191	0
0	13271	1752.945386681924	1
0	13281	1753.27260158421	0
0	13321	1756.034652649309	1
0	13339	1758.534652649309	0
0	13401	1767.182813675391	1
0	13416	1768.727449510333	0
0	13535	1783.092408056784	1
0	13540	1784.061338312726	0
0	13564	1786.817166214026	1
0	13574	1789.317166214026	0
0	13611	1794.340895501018	1
0	13616	1796.596588528561	0
0	13679	1803.933396310003	1
0	13687	1804.779096954926	0
0	13698	1805.05629503416	1
0	13703	1805.121821204008	2
0	13704	1805.121821204008	3
0	13708	1806.49228220213	4
0	13716	1807.279096954926	3
0	13726	1807.605825921647	4
0	13730	1809.779096954926	3
0	13749	1812.279096954926	2
0	13765	1814.506891992877	3
0	13766	1814.779096954926	2
0	13780	1817.279096954926	1
0	13786	1817.424334380924	2
0	13791	1819.779096954926	1
0	13807	1822.279096954926	0
0	13852	1828.629970418774	1
0	13862	1830.090380191074	2
0	13864	1830.123749410549	1
0	13884	1831.77070623458	2
0	13889	1832.623749410549	1
0	13901	1833.606477358768	2
0	13915	1834.725791307755	3
0	13916	1835.123749410549	2
0	13939	1837.524802541073	3
0	13941	1837.623749410549	2
0	13959	1838.921131257175	3
0	13966	1839.719936077662	4
0	13971	1840.123749410549	3
0	13986	1842.623749410549	2
0	14000	1845.123749410549	1
0	14007	1846.549655593329	2
0	14011	1847.623749410549	1
0	14025	1850.123749410549	0
0	14036	1851.657506203111	1
0	14041	1852.623749410549	0
0	14047	1853.510756391103	1
0	14048	1853.510756391103	2
0	14058	1853.691278302187	3
0	14059	1853.691278302187	4
0	14066	1854.843430577219	5
0	14068	1855.123749410549	4
0	14079	1857.623749410549	3
0	14096	1860.123749410549	2
0	14105	1862.623749410549	1
0	14118	1865.123749410549	0
0	14139	1867.090463294568	1
0	14140	1867.623749410549	0
0	14177	1871.858058104563	1
0	14182	1871.930441349519	2
0	14189	1872.784888827118	1
0	14203	1875.284888827118	0
0	14293	1888.275023649698	1
0	14309	1889.513422185676	2
0	14310	1889.888994131113	1
0	14317	1890.263451060789	2
0	14322	1890.398098952709	3
0	14335	1892.331773474136	4
0	14337	1892.388994131113	3
0	14354	1894.888994131113	2
0	14368	1897.388994131113	1
0	14387	1899.161328013065	2
0	14395	1899.888994131113	1
0	14415	1902.388994131113	0
0	14435	1903.885371714711	1
0	14442	1904.888994131113	0
0	14537	1916.476498671531	1
0	14550	1917.941335865891	0
0	14558	1918.108673967129	1
0	14571	1920.441335865891	0
0	14679	1933.709021153265	1
0	14680	1933.709021153265	2
0	14705	1935.644443370951	1
0	14720	1937.513944497168	2
0	14722	1938.144443370951	1
0	14751	1940.644443370951	0
0	14761	1941.692173176814	1
0	14776	1943.144443370951	0
0	14869	1955.359964703153	1
0	14870	1955.400157203566	0
0	14879	1956.795604623018	1
0	14887	1957.900157203566	0
0	14901	1958.964103839275	1
0	14902	1958.964103839275	2
0	14909	1960.400157203566	1
0	14916	1960.436201141355	2
0	14934	1962.241003617284	3
0	14939	1962.900157203566	2
0	14964	1965.400157203566	1
0	14970	1965.616878171561	2
0	14991	1967.900157203566	1
0	15011	1969.052575510512	2
0	15028	1970.400157203566	1
0	15047	1972.681228746152	2
0	15048	1972.900157203566	1
0	15073	1975.400157203566	0
0	15127	1981.327735512479	1
0	15142	1983.00385017269	0
0	15194	1988.932281257291	1
0	15214	1991.432281257291	0
0	15461	2021.977283459095	1
0	15476	2024.323868432149	0
0	15494	2025.552448821968	1
0	15499	2026.497271761111	2
0	15504	2026.739310993305	3
0	15506	2026.823868432149	2
0	15523	2029.323868432149	1
0	15543	2031.818141968255	2
0	15545	2031.823868432149	1
0	15559	2034.323868432149	0
0	15816	2079.730656433066	1
0	15828	2081.224540173815	0
0	15941	2093.360306377885	1
0	15951	2094.650537423186	0
0	15972	2095.618543288074	1
0	15981	2097.150537423186	0
0	16014	2101.440560396041	1
0	16026	2102.405099277732	0
0	16167	2118.874492081587	1
0	16172	2119.080708559857	2
0	16185	2121.374492081587	1
0	16205	2123.874492081587	0
0	16212	2124.207374569046	1
0	16227	2125.806136178353	2
0	16235	2126.374492081587	1
0	16254	2128.874492081587	0
0	16310	2137.064350692682	1
0	16318	2138.526577090188	0
0	16325	2138.792686806311	1
0	16332	2139.079037892353	2
0	16337	2139.163553437939	3
0	16343	2139.36703085368	4
0	16360	2141.026577090188	3
0	16367	2141.469561307793	4
0	16390	2143.526577090188	3
0	16407	2146.026577090188	2
0	16424	2148.526577090188	1
0	16431	2149.949154587456	2
0	16441	2151.026577090188	1
0	16455	2153.526577090188	0
0	16520	2164.952744146613	1
0	16523	2166.562698083319	0
0	16531	2167.249350337674	1
0	16541	2169.062698083319	0
0	16556	2170.680638836349	1
0	16565	2171.562698083319	0
0	16674	2187.346321962951	1
0	16694	2189.694441448068	0
0	16745	2194.326331516338	1
0	16755	2195.897323248402	0
0	16769	2197.628796923903	1
0	16775	2198.397323248402	0
0	16828	2206.425835420755	1
0	16830	2206.997942743823	0
0	16840	2208.90632824496	1
0	16844	2209.497942743823	0
0	17036	2238.906966849671	1
0	17041	2239.338290053284	2
0	17043	2239.683753985565	1
0	17060	2242.183753985565	0
0	17067	2242.488556399175	1
0	17087	2244.683753985565	0
0	17100	2245.543103744396	1
0	17108	2246.994601240635	2
0	17109	2247.183753985565	1
0	17124	2249.238724008444	2
0	17126	2249.683753985565	1
0	17138	2252.183753985565	0
0	17164	2255.598663923183	1
0	17179	2258.098663923183	0
0	17188	2258.887093785962	1
0	17196	2260.598663923183	0
0	17211	2262.94306100697	1
0	17212	2263.098663923183	0
0	17221	2264.229821465657	1
0	17234	2265.598663923183	0
0	17262	2272.236407512173	1
0	17270	2273.405834125134	0
0	17362	2289.950902289615	1
0	17369	2292.158833562907	0
0	17380	2292.467267465515	1
0	17381	2292.467267465515	2
0	17386	2294.658833562907	1
0	17402	2297.158833562907	0
0	17408	2297.897846534898	1
0	17421	2299.658833562907	0
0	17494	2311.650398269214	1
0	17496	2312.230151791595	0
0	17507	2314.67762248844	1
0	17510	2314.730151791595	0
0	17648	2332.611978442352	1
0	17649	2332.898793227576	0
0	17728	2344.35623666004	1
0	17730	2345.166792424703	0
0	17754	2347.527884849595	1
0	17756	2347.666792424703	0
0	17880	2364.451147392503	1
0	17893	2366.067186749146	0
0	17969	2379.920484526724	1
0	17984	2382.378578733864	2
0	17985	2382.378578733864	3
0	17989	2382.420484526724	2
0	17998	2383.295482537324	3
0	18004	2384.180219381707	4
0	18008	2384.920484526724	3
0	18025	2387.420484526724	2
0	18042	2389.920484526724	1
0	18069	2392.420484526724	0
0	18168	2406.723514036715	1
0	18169	2406.723514036715	2
0	18170	2407.026286589868	1
0	18185	2409.526286589868	0
0	18208	2410.79373187892	1
0	18209	2410.79373187892	2
0	18210	2412.026286589868	1
0	18237	2414.526286589868	0
0	18249	2415.691729878735	1
0	18257	2417.026286589868	0
0	18279	2418.327408422258	1
0	18286	2419.526286589868	0
0	18398	2434.384689039663	1
0	18406	2435.672077303746	0
0	18480	2444.08923584482	1
0	18493	2446.114160591368	0
0	18499	2446.430172288147	1
0	18516	2447.830634809835	2
0	18517	2447.830634809835	3
0	18522	2448.485186420884	4
0	18523	2448.614160591368	3
0	18534	2449.423291003421	4
0	18547	2451.114160591368	3
0	18567	2453.593582883741	4
0	18568	2453.593582883741	5
0	18569	2453.614160591368	4
0	18581	2456.114160591368	3
0	18587	2456.323459872527	4
0	18595	2458.165957414536	5
0	18600	2458.614160591368	4
0	18606	2459.900285547916	5
0	18614	2461.114160591368	4
0	18625	2463.614160591368	3
0	18645	2465.627462812327	4
0	18646	2466.114160591368	3
0	18653	2466.998748392373	4
0	18666	2468.614160591368	3
0	18673	2468.89613037076	4
0	18685	2471.114160591368	3
0	18707	2473.614160591368	2
0	18724	2476.114160591368	1
0	18738	2478.614160591368	0
0	18800	2486.643636125551	1
0	18806	2487.90273665676	0
0	18822	2488.51554676124	1
0	18823	2490.40273665676	0
0	18838	2491.646444546993	1
0	18840	2492.90273665676	0
0	18932	2511.437997439167	1
0	18946	2513.244220942785	2
0	18957	2513.937997439167	1
0	18977	2515.984018764293	2
0	18979	2516.437997439167	1
0	18993	2518.937997439167	0
0	19127	2535.1794293415	1
0	19131	2535.725910508621	2
0	19132	2535.725910508621	3
0	19144	2537.6794293415	2
0	19166	2540.1794293415	1
0	19178	2542.6794293415	0
0	19234	2550.03151298738	1
0	19240	2550.064135545905	2
0	19241	2551.558139733112	1
0	19262	2552.731488966395	2
0	19263	2554.058139733112	1
0	19270	2554.765831990997	2
0	19282	2556.558139733112	1
0	19289	2557.182959558425	2
0	19302	2559.058139733112	1
0	19311	2560.171809008335	2
0	19321	2561.558139733112	1
0	19335	2564.058139733112	0
0	19369	2569.345020337162	1
0	19375	2569.891151106866	2
0	19377	2570.103947420567	1
0	19385	2571.515947167489	2
0	19393	2572.603947420567	1
0	19403	2574.880547849474	2
0	19404	2575.103947420567	1
0	19415	2577.603947420567	0
0	19430	2580.036065653339	1
0	19431	2580.103947420567	0
0	19482	2587.265701906864	1
0	19486	2587.665499389861	2
0	19489	2588.640614573863	1
0	19513	2591.140614573863	0
0	19619	2602.548241020095	1
0	19620	2602.658017127932	0
0	19698	2610.672731256935	1
0	19705	2611.948103037262	0
0	19720	2613.962373215218	1
0	19722	2614.448103037262	0
0	19732	2615.815900540813	1
0	19736	2616.948103037262	0
0	19754	2619.208535929746	1
0	19755	2619.448103037262	0
0	19865	2632.416290999312	1
0	19883	2634.697289262914	0
0	19898	2636.399514199361	1
0	19900	2637.197289262914	0
0	20107	2660.806246332519	1
0	20130	2663.306246332519	0
0	20301	2680.084671385261	1
0	20302	2680.084671385261	2
0	20317	2681.829007988355	1
0	20334	2684.329007988355	0
0	20344	2685.934369553845	1
0	20348	2686.023321796062	2
0	20361	2686.180450534075	3
0	20363	2686.829007988355	2
0	20378	2689.329007988355	1
0	20390	2690.348697216866	2
0	20400	2691.829007988355	1