version 3
run k_MM1_rand-31-20221127-16:03:22-5740
attr configname k_MM1_rand
attr datetime 20221127-16:03:22
attr datetimef 20221127-160322
attr experiment k_MM1_rand
attr inifile omnetpp.ini
attr iterationvars "$time=2.5, $num=5, $0=33434, $1=56673, $2=23567"
attr iterationvarsd time=2.5/num=5/33434/56673/23567
attr iterationvarsf time=2.5,num=5,33434,56673,23567-
attr measurement "$time=2.5, $num=5, $0=33434, $1=56673, $2=23567"
attr network randkMM1
attr processid 5740
attr repetition 3
attr replication #3
attr resultdir results
attr runnumber 31
attr seedset 31
itervar num 5
itervar time 2.5
config description "MM1 module k-times random"
config network randkMM1
config **.source.interArrivalTime "truncnormal(0.5s, 1.5s)"
config **.serviceTime 2.5s
config **.c 5
config **.capacity 10000
config record-eventlog false
config **.scalar-recording true
config **.vector-recording true
config repeat 4
config seed-1-mt 33434
config seed-2-mt 56673
config seed-3-mt 23567
config output-vector-file k_MM1_rand-5-2.5-results/3.vec
config output-scalar-file k_MM1_rand-5-2.5-results/3.sca

vector 0 randkMM1.mm1[2] queueLength:vector ETV
attr interpolationmode none
attr recordingmode vector
attr title "queue length"
vector 1 randkMM1.mm1[3] queueLength:vector ETV
attr interpolationmode none
attr recordingmode vector
attr title "queue length"
vector 2 randkMM1.mm1[2] util:vector ETV
attr interpolationmode none
attr recordingmode vector
attr title resources
vector 3 randkMM1.mm1[3] util:vector ETV
attr interpolationmode none
attr recordingmode vector
attr title resources
vector 4 randkMM1.mm1[1] util:vector ETV
attr interpolationmode none
attr recordingmode vector
attr title resources
vector 5 randkMM1.mm1[0] util:vector ETV
attr interpolationmode none
attr recordingmode vector
attr title resources
vector 6 randkMM1.mm1[4] util:vector ETV
attr interpolationmode none
attr recordingmode vector
attr title resources
vector 7 randkMM1.mm1[0] queueLength:vector ETV
attr interpolationmode none
attr recordingmode vector
attr title "queue length"
vector 8 randkMM1.mm1[1] queueLength:vector ETV
attr interpolationmode none
attr recordingmode vector
attr title "queue length"
vector 9 randkMM1.mm1[4] queueLength:vector ETV
attr interpolationmode none
attr recordingmode vector
attr title "queue length"
0	10	11.710993740731	1
0	15	12.362097330164	2
0	16	12.5	1
0	25	15	0
0	40	16.737392917289	1
0	41	17.5	0
0	99	24.327406843988	1
0	103	24.921107245275	0
0	115	25.955829381998	1
0	121	26.55566034567	2
0	125	27.421107245275	1
0	135	28.236597985717	2
0	144	29.921107245275	1
0	150	29.956128268097	2
0	169	32.421107245275	1
0	184	34.921107245275	0
0	576	79.261905456964	1
0	577	79.261905456964	2
0	578	80.503573546307	1
0	589	83.003573546307	0
0	598	83.890206826922	1
0	603	85.503573546307	0
0	620	86.618879013293	1
0	627	88.003573546307	0
0	661	92.434762858225	1
0	670	92.877351759527	2
0	678	93.743394974761	3
0	682	94.40585670822	2
0	699	96.90585670822	1
0	715	97.569643742336	2
0	719	99.40585670822	1
0	737	101.8450380766	2
0	738	101.90585670822	1
0	745	101.949878146941	2
0	758	103.729088444498	3
0	760	104.40585670822	2
0	769	105.822195633847	3
0	770	105.822195633847	4
0	779	106.90585670822	3
0	794	108.429686713094	4
0	803	109.40585670822	3
0	825	111.90585670822	2
0	834	113.284365172224	3
0	845	113.676781331587	4
0	850	113.806343329863	5
0	852	114.40585670822	4
0	869	116.90585670822	3
0	880	117.344760672349	4
0	897	118.522547159456	5
0	899	119.40585670822	4
0	916	121.90585670822	3
0	922	122.688326128939	4
0	938	124.40585670822	3
0	955	126.90585670822	2
0	961	127.421903747472	3
0	974	129.40585670822	2
0	991	131.90585670822	1
0	1008	134.40585670822	0
0	1056	138.724487279053	1
0	1069	141.224487279053	0
0	1075	141.94434341317	1
0	1081	142.252766518337	2
0	1088	143.724487279053	1
0	1097	145.39133131302	2
0	1102	146.224487279053	1
0	1109	147.512512231054	2
0	1116	148.724487279053	1
0	1122	151.224487279053	0
0	1167	157.36057365645	1
0	1172	157.412085818934	2
0	1173	157.979392816555	1
0	1198	160.479392816555	0
0	1346	176.863230365162	1
0	1347	177.080635179164	0
0	1359	177.693372350263	1
0	1374	179.580635179164	0
0	1480	194.243586113779	1
0	1495	195.51972708096	0
0	1505	197.125939812693	1
0	1512	198.01972708096	0
0	1562	206.655957704162	1
0	1576	208.124944945876	0
0	1585	209.16240403147	1
0	1592	210.624944945876	0
0	1598	210.777689035039	1
0	1613	213.124944945876	0
0	1634	215.465040585999	1
0	1635	215.624944945876	0
0	1725	226.383412936858	1
0	1737	227.633343023897	0
0	1783	232.592420440849	1
0	1798	235.023553325739	0
0	1819	238.405926981885	1
0	1836	240.905926981885	0
0	1888	248.399596341126	1
0	1894	249.598678818108	0
0	1929	252.79724780856	1
0	1949	255.29724780856	0
0	1963	256.661935799568	1
0	1974	257.79724780856	0
0	2127	275.642127363516	1
0	2134	276.370027961268	0
0	2326	297.05363762406	1
0	2330	297.733780398917	2
0	2331	297.733780398917	3
0	2337	298.705444166972	2
0	2349	301.205444166972	1
0	2366	303.705444166972	0
0	2568	327.655744706584	1
0	2577	328.2029963089	2
0	2578	328.658475548086	1
0	2596	329.630834038415	2
0	2603	331.158475548086	1
0	2610	331.351993381072	2
0	2620	333.658475548086	1
0	2626	334.447152383998	2
0	2634	336.158475548086	1
0	2649	337.387286016113	2
0	2656	338.658475548086	1
0	2670	341.158475548086	0
0	2954	381.140213562394	1
0	2966	382.584580015452	0
0	2979	384.045069500257	1
0	2986	385.084580015452	0
0	2992	385.551674287377	1
0	2993	385.551674287377	2
0	3016	387.043954692065	3
0	3018	387.584580015452	2
0	3032	388.244393379067	3
0	3043	390.084580015452	2
0	3070	392.584580015452	1
0	3088	393.765849346003	2
0	3100	395.084580015452	1
0	3109	395.759985701765	2
0	3130	397.584580015452	1
0	3142	398.359810075965	2
0	3143	398.359810075965	3
0	3151	399.584002513869	4
0	3155	400.084580015452	3
0	3167	402.584580015452	2
0	3173	402.777019072691	3
0	3184	404.978508449324	4
0	3186	405.084580015452	3
0	3200	407.584580015452	2
0	3217	409.868876729931	3
0	3219	410.084580015452	2
0	3233	412.584580015452	1
0	3253	414.012779361392	2
0	3255	415.084580015452	1
0	3261	415.295879952791	2
0	3262	415.295879952791	3
0	3266	415.363187784433	4
0	3282	417.584580015452	3
0	3291	420.084580015452	2
0	3310	422.584580015452	1
0	3325	425.084580015452	0
0	3374	430.904842223135	1
0	3387	433.105770260384	0
0	3399	434.635213198526	1
0	3404	435.605770260384	0
0	3507	453.66958604053	1
0	3522	456.16958604053	0
0	3556	461.672426361039	1
0	3558	462.357419455679	0
0	3764	499.728643351509	1
0	3775	500.43371821508	0
0	3794	502.287451746006	1
0	3795	502.287451746006	2
0	3797	502.93371821508	1
0	3812	504.607826595083	2
0	3819	505.43371821508	1
0	3840	505.965911185732	2
0	3853	507.93371821508	1
0	3873	510.43371821508	0
0	3882	510.58702326581	1
0	3888	510.623441596342	2
0	3905	512.93371821508	1
0	3917	513.983497365779	2
0	3918	513.983497365779	3
0	3927	515.43371821508	2
0	3939	517.93371821508	1
0	3949	518.091996325641	2
0	3956	519.032690899071	3
0	3964	520.132789562426	4
0	3966	520.43371821508	3
0	3972	520.727370610649	4
0	3980	521.78281995685	5
0	3988	522.93371821508	4
0	4006	525.249907159991	5
0	4008	525.43371821508	4
0	4017	526.643645653264	5
0	4025	527.93371821508	4
0	4032	528.851633507451	5
0	4039	530.43371821508	4
0	4059	532.276217640665	5
0	4060	532.93371821508	4
0	4080	535.43371821508	3
0	4094	536.921318904588	4
0	4102	537.93371821508	3
0	4111	538.884500782105	4
0	4112	538.884500782105	5
0	4120	539.622058228595	6
0	4121	540.43371821508	5
0	4130	542.93371821508	4
0	4138	545.43371821508	3
0	4156	546.504518881291	4
0	4157	547.93371821508	3
0	4171	550.43371821508	2
0	4181	551.172872253539	3
0	4195	552.93371821508	2
0	4207	555.43371821508	1
0	4218	557.93371821508	0
0	4256	563.234775311724	1
0	4268	565.734775311724	0
0	4274	566.539497527441	1
0	4275	566.539497527441	2
0	4282	568.234775311724	1
0	4300	570.734775311724	0
0	4375	578.555323318186	1
0	4391	580.360008501441	0
0	4435	584.790810752037	1
0	4443	585.543957544816	2
0	4449	586.107656792741	1
0	4463	588.607656792741	0
0	4472	589.66077045276	1
0	4479	591.107656792741	0
0	4523	595.823604456493	1
0	4528	596.439073728544	2
0	4530	596.904785733084	1
0	4552	599.404785733084	0
0	4612	606.187706762226	1
0	4627	607.394753763709	0
0	4636	608.657846385629	1
0	4647	609.894753763709	0
0	4657	611.309894435754	1
0	4661	612.394753763709	0
0	4689	616.816805432703	1
0	4691	617.795455711908	0
0	4703	618.761400043709	1
0	4704	618.761400043709	2
0	4705	620.295455711908	1
0	4716	622.795455711908	0
0	4859	640.050329016059	1
0	4860	640.050329016059	2
0	4864	641.475514282788	1
0	4870	641.8964768195	2
0	4878	643.975514282788	1
0	4885	644.947592042318	2
0	4892	646.125733648309	3
0	4902	646.475514282788	2
0	4924	648.975514282788	1
0	4933	651.101309929174	2
0	4941	651.475514282788	1
0	4957	653.755563919344	2
0	4958	653.975514282788	1
0	4970	655.446165274661	2
0	4982	656.475514282788	1
0	4989	656.953572644829	2
0	5004	658.357517986762	3
0	5009	658.975514282788	2
0	5034	661.475514282788	1
0	5053	663.249174475526	2
0	5058	663.975514282788	1
0	5078	666.475514282788	0
0	5102	668.90607302747	1
0	5103	668.975514282788	0
0	5211	683.419143873406	1
0	5212	683.419143873406	2
0	5216	684.220750742802	1
0	5236	685.801362866258	2
0	5249	686.622705421747	3
0	5251	686.720750742802	2
0	5263	689.220750742802	1
0	5269	689.285490603671	2
0	5282	691.720750742802	1
0	5304	694.220750742802	0
0	5319	696.671154790795	1
0	5321	696.720750742802	0
0	5335	697.399880930931	1
0	5345	699.220750742802	0
0	5352	699.310702364259	1
0	5367	701.720750742802	0
0	5383	701.91494181009	1
0	5392	704.220750742802	0
0	5410	705.852372123076	1
0	5415	706.0861114007	2
0	5416	706.0861114007	3
0	5417	706.720750742802	2
0	5433	709.220750742802	1
0	5449	710.199169155259	2
0	5454	710.389294686633	3
0	5455	711.720750742802	2
0	5467	712.602013537871	3
0	5468	712.602013537871	4
0	5473	712.895166070546	5
0	5479	714.220750742802	4
0	5492	715.289726123367	5
0	5496	716.720750742802	4
0	5518	719.220750742802	3
0	5524	720.728924809858	4
0	5530	721.16655666326	5
0	5541	721.644104304181	6
0	5545	721.720750742802	5
0	5551	722.194142162888	6
0	5559	724.220750742802	5
0	5588	726.720750742802	4
0	5606	728.944286873668	5
0	5607	728.944286873668	6
0	5611	729.0871832749	7
0	5613	729.220750742802	6
0	5627	731.720750742802	5
0	5639	734.220750742802	4
0	5654	735.254109729254	5
0	5665	736.720750742802	4
0	5681	737.595323493435	5
0	5689	738.145731898109	6
0	5690	739.220750742802	5
0	5716	741.602570437026	6
0	5717	741.720750742802	5
0	5739	744.220750742802	4
0	5751	746.720750742802	3
0	5775	749.220750742802	2
0	5794	750.553163304802	3
0	5800	751.720750742802	2
0	5815	754.220750742802	1
0	5822	754.272536736617	2
0	5833	756.040660654805	3
0	5834	756.720750742802	2
0	5856	759.220750742802	1
0	5871	760.410863681666	2
0	5877	761.069441791549	3
0	5886	761.720750742802	2
0	5902	763.088183036011	3
0	5903	764.220750742802	2
0	5925	766.720750742802	1
0	5942	769.220750742802	0
0	5949	769.69294952416	1
0	5967	771.720750742802	0
0	5974	772.19102719787	1
0	5981	774.220750742802	0
0	5988	775.349940759293	1
0	5999	776.697306235074	2
0	6000	776.720750742802	1
0	6017	779.042217732244	2
0	6019	779.220750742802	1
0	6026	779.386405171225	2
0	6039	781.570485335224	3
0	6046	781.720750742802	2
0	6063	784.220750742802	1
0	6077	786.22854966978	2
0	6082	786.720750742802	1
0	6097	789.040031753786	2
0	6102	789.220750742802	1
0	6121	791.720750742802	0
0	6199	803.2110767447	1
0	6209	805.149838617883	0
0	6224	806.920688696453	1
0	6226	807.649838617883	0
0	6317	820.332905341003	1
0	6322	820.623545896967	0
0	6706	869.28502638364	1
0	6714	870.578655901241	0
0	6733	873.33712046526	1
0	6749	875.629027403707	2
0	6750	875.83712046526	1
0	6763	877.127463738478	2
0	6767	878.33712046526	1
0	6779	879.808658080127	2
0	6780	879.808658080127	3
0	6784	880.550484708756	4
0	6786	880.83712046526	3
0	6793	881.382360960894	4
0	6801	882.215043228391	5
0	6805	883.33712046526	4
0	6819	885.119178620858	5
0	6824	885.83712046526	4
0	6838	888.33712046526	3
0	6852	890.83712046526	2
0	6861	891.536742554878	3
0	6866	893.33712046526	2
0	6872	894.247557688336	3
0	6873	894.247557688336	4
0	6877	895.83712046526	3
0	6892	898.304723580744	4
0	6893	898.33712046526	3
0	6905	899.120148409096	4
0	6917	900.83712046526	3
0	6929	903.33712046526	2
0	6939	904.009702215672	3
0	6948	905.83712046526	2
0	6957	907.900648787253	3
0	6958	907.900648787253	4
0	6962	908.33712046526	3
0	6978	910.83712046526	2
0	7000	913.33712046526	1
0	7024	914.527627936802	2
0	7030	915.83712046526	1
0	7045	916.753928539742	2
0	7051	916.97896266912	3
0	7055	918.33712046526	2
0	7085	920.83712046526	1
0	7102	923.33712046526	0
0	7119	924.514934185177	1
0	7127	925.83712046526	0
0	7176	932.019356627511	1
0	7191	934.519356627511	0
0	7200	935.040267768646	1
0	7201	935.040267768646	2
0	7208	937.019356627511	1
0	7221	939.519356627511	0
0	7238	941.365024181694	1
0	7245	942.019356627511	0
0	7335	951.83859698259	1
0	7340	952.282670444732	2
0	7342	952.601603437475	1
0	7367	953.906451020857	2
0	7369	955.101603437475	1
0	7388	957.601603437475	0
0	7403	958.312943729179	1
0	7420	960.101603437475	0
0	7495	969.280532621932	1
0	7512	971.780532621932	0
0	7524	972.975647217194	1
0	7534	974.280532621932	0
0	7604	979.974899913885	1
0	7605	980.690469281274	0
0	7739	996.390804421123	1
0	7743	997.140686682668	2
0	7748	997.821749019724	1
0	7765	1000.321749019724	0
0	7899	1018.645029058922	1
0	7913	1020.137279975307	0
0	7929	1021.625356242759	1
0	7930	1022.637279975307	0
0	7948	1024.852805470707	1
0	7949	1024.852805470707	2
0	7953	1025.074899468678	3
0	7955	1025.137279975307	2
0	7964	1027.637279975307	1
0	7975	1030.137279975307	0
0	7987	1031.49698484504	1
0	7994	1032.637279975307	0
0	8001	1033.994991666496	1
0	8022	1034.870344978988	2
0	8023	1035.137279975307	1
0	8047	1037.461799085504	2
0	8048	1037.637279975307	1
0	8060	1040.137279975307	0
0	8067	1041.417916736851	1
0	8075	1042.473571288854	2
0	8076	1042.637279975307	1
0	8083	1043.238750359369	2
0	8097	1045.08789683282	3
0	8098	1045.137279975307	2
0	8105	1046.785874631916	3
0	8112	1047.637279975307	2
0	8118	1047.814061211381	3
0	8124	1048.200568980345	4
0	8132	1049.724276652735	5
0	8133	1050.137279975307	4
0	8148	1052.229805012682	5
0	8149	1052.229805012682	6
0	8155	1052.637279975307	5
0	8179	1055.137279975307	4
0	8199	1057.637279975307	3
0	8208	1060.137279975307	2
0	8224	1060.973010459624	3
0	8229	1062.637279975307	2
0	8238	1063.933924583282	3
0	8248	1065.137279975307	2
0	8258	1065.362087189118	3
0	8263	1065.374883695433	4
0	8268	1065.672624086539	5
0	8283	1067.637279975307	4
0	8313	1070.137279975307	3
0	8323	1070.671523246913	4
0	8335	1072.637279975307	3
0	8350	1073.685877821054	4
0	8357	1075.137279975307	3
0	8369	1076.862725087191	4
0	8387	1077.637279975307	3
0	8409	1080.137279975307	2
0	8436	1082.637279975307	1
0	8445	1083.394678292935	2
0	8466	1085.137279975307	1
0	8481	1087.637279975307	0
0	8490	1088.519951472882	1
0	8501	1090.137279975307	0
0	8830	1135.02594262718	1
0	8838	1135.375851239557	2
0	8842	1135.853640294691	1
0	8862	1138.353640294691	0
0	9106	1169.107118653377	1
0	9107	1169.107118653377	2
0	9108	1169.235398218322	1
0	9128	1171.735398218322	0
0	9145	1171.9829323159	1
0	9151	1172.969352718462	2
0	9163	1174.235398218322	1
0	9175	1175.653265778133	2
0	9183	1176.735398218322	1
0	9197	1177.853387586	2
0	9203	1178.033217558052	3
0	9215	1179.235398218322	2
0	9235	1181.735398218322	1
0	9245	1182.436736513701	2
0	9252	1182.847405548982	3
0	9265	1184.235398218322	2
0	9290	1186.433456193532	3
0	9295	1186.735398218322	2
0	9310	1188.072024191959	3
0	9318	1188.486566000795	4
0	9327	1189.235398218322	3
0	9347	1191.735398218322	2
0	9353	1191.906692686211	3
0	9369	1194.235398218322	2
0	9389	1196.735398218322	1
0	9395	1196.811489922529	2
0	9396	1196.811489922529	3
0	9414	1199.235398218322	2
0	9423	1201.735398218322	1
0	9447	1204.235398218322	0
0	9460	1205.076597416825	1
0	9474	1206.735398218322	0
0	9505	1209.926368930105	1
0	9519	1211.996630949267	2
0	9522	1212.302088895378	1
0	9536	1213.57934709656	2
0	9557	1214.802088895378	1
0	9568	1215.501266052754	2
0	9576	1215.900819337741	3
0	9582	1217.302088895378	2
0	9612	1219.802088895378	1
0	9627	1222.302088895378	0
0	9698	1235.015101258501	1
0	9699	1235.417645287067	0
0	9734	1241.354398324006	1
0	9739	1242.204777728227	2
0	9740	1242.395444728153	1
0	9754	1244.895444728153	0
0	9834	1255.000987986786	1
0	9835	1255.000987986786	2
0	9843	1257.14115631331	1
0	9856	1259.64115631331	0
0	9866	1260.41701825676	1
0	9872	1262.14115631331	0
0	9901	1266.094029898735	1
0	9910	1267.735457472463	0
0	9950	1275.904570294681	1
0	9951	1275.904570294681	2
0	9952	1275.982771122012	1
0	9966	1278.482771122012	0
0	9972	1279.941892164051	1
0	9973	1279.941892164051	2
0	9980	1280.982771122012	1
0	9993	1283.482771122012	0
0	10089	1296.106839599593	1
0	10105	1298.46766477439	0
0	10268	1319.889175019367	1
0	10279	1322.021445714088	2
0	10280	1322.389175019367	1
0	10294	1324.889175019367	0
0	10317	1327.243949204354	1
0	10324	1327.389175019367	0
0	10362	1330.429977679324	1
0	10378	1332.674289156594	2
0	10390	1332.929977679324	1
0	10410	1335.429977679324	0
0	10417	1335.553219302718	1
0	10422	1335.558331169095	2
0	10445	1337.929977679324	1
0	10451	1338.348028751057	2
0	10465	1340.429977679324	1
0	10487	1342.929977679324	0
0	10575	1356.078252602226	1
0	10579	1356.315030258577	2
0	10580	1356.315030258577	3
0	10584	1356.467827907718	4
0	10592	1358.396912594585	5
0	10597	1358.578252602226	4
0	10612	1360.468504110757	5
0	10619	1361.078252602226	4
0	10641	1363.578252602226	3
0	10653	1366.078252602226	2
0	10664	1368.578252602226	1
0	10670	1369.698605675817	2
0	10680	1371.078252602226	1
0	10686	1371.904040053313	2
0	10697	1373.578252602226	1
0	10716	1376.078252602226	0
0	10959	1413.115796447861	1
0	10961	1414.321470368362	0
0	11011	1421.112026999529	1
0	11016	1421.57687699898	0
0	11022	1422.009525180109	1
0	11023	1422.009525180109	2
0	11028	1423.480158317298	3
0	11035	1424.07687699898	2
0	11044	1426.57687699898	1
0	11055	1429.07687699898	0
0	11061	1429.250636435061	1
0	11069	1431.57687699898	0
0	11076	1431.721056695022	1
0	11085	1434.07687699898	0
0	11098	1436.06896637791	1
0	11104	1436.57687699898	0
0	11114	1437.580952256666	1
0	11118	1439.07687699898	0
0	11125	1439.478677259154	1
0	11132	1441.57687699898	0
0	11143	1441.916404260398	1
0	11148	1442.32626157193	2
0	11158	1444.07687699898	1
0	11170	1444.535928826017	2
0	11180	1446.57687699898	1
0	11202	1449.07687699898	0
0	11213	1449.802137098032	1
0	11233	1451.273463016402	2
0	11237	1451.57687699898	1
0	11257	1454.07687699898	0
0	11342	1465.38142918294	1
0	11354	1467.641741594467	0
0	11372	1470.116623749676	1
0	11373	1470.141741594467	0
0	11479	1483.384915344014	1
0	11480	1483.519733227226	0
0	11493	1483.795645864435	1
0	11505	1486.019733227226	0
0	11525	1487.832385223725	1
0	11527	1488.519733227226	0
0	11544	1489.484073026327	1
0	11545	1489.484073026327	2
0	11554	1491.019733227226	1
0	11576	1493.519733227226	0
0	11588	1494.882505192825	1
0	11589	1494.882505192825	2
0	11598	1496.019733227226	1
0	11625	1498.519733227226	0
0	11729	1514.224098013087	1
0	11730	1514.948333657012	0
0	11857	1528.019904201258	1
0	11859	1528.376487209825	0
0	11901	1533.832106730456	1
0	11918	1536.332106730456	0
0	12022	1556.716959235715	1
0	12025	1556.924787390137	0
0	12123	1569.22419520565	1
0	12140	1571.072266274618	2
0	12141	1571.072266274618	3
0	12142	1571.691388515167	2
0	12160	1572.986609962421	3
0	12172	1574.191388515167	2
0	12187	1576.329625471632	3
0	12189	1576.691388515167	2
0	12209	1578.257542091819	3
0	12219	1579.111560286529	4
0	12221	1579.191388515167	3
0	12239	1580.895251483926	4
0	12251	1581.691388515167	3
0	12257	1582.087804101613	4
0	12275	1584.106178131904	5
0	12276	1584.191388515167	4
0	12293	1586.691388515167	3
0	12316	1588.984117981267	4
0	12317	1589.191388515167	3
0	12337	1591.691388515167	2
0	12350	1592.699734746002	3
0	12357	1594.191388515167	2
0	12374	1595.430713806756	3
0	12375	1595.430713806756	4
0	12376	1596.691388515167	3
0	12398	1599.191388515167	2
0	12405	1599.725426257933	3
0	12418	1601.344578648087	4
0	12420	1601.691388515167	3
0	12432	1604.191388515167	2
0	12454	1606.653007053898	3
0	12456	1606.691388515167	2
0	12475	1608.326696024215	3
0	12476	1609.191388515167	2
0	12495	1611.691388515167	1
0	12517	1614.191388515167	0
0	12523	1614.231423962529	1
0	12524	1614.231423962529	2
0	12539	1616.691388515167	1
0	12569	1619.191388515167	0
0	12589	1619.883478858522	1
0	12601	1621.691388515167	0
0	12621	1623.818679675886	1
0	12626	1624.191388515167	0
0	12701	1632.758230483478	1
0	12702	1632.758230483478	2
0	12720	1635.223736553226	1
0	12740	1637.723736553226	0
0	12766	1641.978077343885	1
0	12789	1644.155636752065	0
0	13020	1669.53669849657	1
0	13030	1672.03669849657	0
0	13039	1672.567501749855	1
0	13054	1674.53669849657	0
0	13083	1676.857426152542	1
0	13089	1677.03669849657	0
0	13205	1691.849397738368	1
0	13206	1691.849397738368	2
0	13213	1692.635004431533	3
0	13218	1693.264992862054	2
0	13225	1693.849140316572	3
0	13238	1694.827601503479	4
0	13240	1695.764992862054	3
0	13250	1696.478743616228	4
0	13251	1698.264992862054	3
0	13262	1700.764992862054	2
0	13268	1700.835848086364	3
0	13292	1703.133303046231	4
0	13293	1703.133303046231	5
0	13294	1703.264992862054	4
0	13314	1705.764992862054	3
0	13338	1707.407340386483	4
0	13339	1708.264992862054	3
0	13345	1708.43993345934	4
0	13356	1709.433639998524	5
0	13358	1710.764992862054	4
0	13367	1713.264992862054	3
0	13377	1713.612599297061	4
0	13388	1715.764992862054	3
0	13410	1718.264992862054	2
0	13425	1720.05837797477	3
0	13430	1720.5793544346	4
0	13434	1720.764992862054	3
0	13454	1723.264992862054	2
0	13469	1725.751148362095	3
0	13471	1725.764992862054	2
0	13488	1728.264992862054	1
0	13497	1730.010153274475	2
0	13502	1730.764992862054	1
0	13512	1731.150253712741	2
0	13523	1733.264992862054	1
0	13545	1735.764992862054	0
0	13560	1737.389324452535	1
0	13562	1738.264992862054	0
0	13666	1754.048585799881	1
0	13678	1755.998991959323	0
0	13691	1758.233950108611	1
0	13695	1758.498991959323	0
0	13702	1759.094419959625	1
0	13712	1759.846816419986	2
0	13724	1760.998991959323	1
0	13739	1763.498991959323	0
0	13748	1765.603206124578	1
0	13749	1765.603206124578	2
0	13753	1765.998991959323	1
0	13766	1768.498991959323	0
0	13843	1779.616659655531	1
0	13845	1779.997464530618	0
0	13898	1785.61839383853	1
0	13912	1787.667435745646	0
0	13999	1798.62866363365	1
0	14011	1801.12866363365	0
0	14028	1803.463008435582	1
0	14029	1803.463008435582	2
0	14030	1803.62866363365	1
0	14048	1805.087909838864	2
0	14049	1806.12866363365	1
0	14063	1808.62866363365	0
0	14081	1809.287481183239	1
0	14092	1811.12866363365	0
0	14111	1812.571172788561	1
0	14121	1812.734892628661	2
0	14126	1813.362120747039	3
0	14127	1813.62866363365	2
0	14156	1815.749234812504	3
0	14157	1816.12866363365	2
0	14173	1818.474225039254	3
0	14174	1818.62866363365	2
0	14209	1821.12866363365	1
0	14229	1823.62866363365	0
0	14347	1841.790412685366	1
0	14348	1841.790412685366	2
0	14349	1842.295051348524	1
0	14363	1844.795051348524	0
0	14386	1849.888599689503	1
0	14391	1850.37499836	2
0	14392	1850.37499836	3
0	14393	1851.261584816832	2
0	14410	1853.336721202899	3
0	14412	1853.761584816832	2
0	14423	1856.261584816832	1
0	14435	1858.761584816832	0
0	14444	1859.922954535308	1
0	14445	1859.922954535308	2
0	14446	1861.261584816832	1
0	14453	1863.306679659444	2
0	14454	1863.761584816832	1
0	14465	1866.261584816832	0
0	14475	1867.966893656142	1
0	14479	1868.067701819588	2
0	14484	1868.761584816832	1
0	14490	1870.293531882339	2
0	14504	1870.783985630647	3
0	14508	1871.261584816832	2
0	14514	1871.586980661549	3
0	14528	1873.398799460886	4
0	14529	1873.398799460886	5
0	14530	1873.761584816832	4
0	14551	1876.261584816832	3
0	14571	1878.761584816832	2
0	14586	1880.133129631389	3
0	14593	1880.80275609423	4
0	14594	1880.80275609423	5
0	14598	1881.261584816832	4
0	14615	1883.761584816832	3
0	14622	1885.292602853827	4
0	14637	1886.261584816832	3
0	14644	1886.769334014602	4
0	14661	1888.761584816832	3
0	14667	1889.21335030998	4
0	14686	1891.243978723172	5
0	14688	1891.261584816832	4
0	14700	1892.713413043479	5
0	14713	1893.761584816832	4
0	14733	1896.261584816832	3
0	14757	1898.761584816832	2
0	14763	1899.182646550658	3
0	14774	1899.964692902781	4
0	14782	1901.261584816832	3
0	14797	1903.761584816832	2
0	14813	1906.261584816832	1
0	14819	1906.450106520619	2
0	14830	1907.293916951726	3
0	14832	1908.761584816832	2
0	14845	1909.521828351596	3
0	14850	1909.809598035281	4
0	14854	1910.314017463367	5
0	14859	1910.394802763089	6
0	14860	1910.394802763089	7
0	14861	1911.261584816832	6
0	14871	1911.506541162147	7
0	14883	1913.761584816832	6
0	14892	1916.261584816832	5
0	14906	1918.761584816832	4
0	14928	1920.745872721402	5
0	14930	1921.261584816832	4
0	14942	1923.761584816832	3
0	14954	1924.752341599952	4
0	14965	1925.645194746325	5
0	14972	1926.206718327763	6
0	14974	1926.261584816832	5
0	14991	1928.761584816832	4
0	15011	1931.077316129026	5
0	15013	1931.261584816832	4
0	15028	1933.761584816832	3
0	15045	1936.19335543421	4
0	15047	1936.261584816832	3
0	15064	1938.761584816832	2
0	15088	1941.261584816832	1
0	15101	1943.023369444432	2
0	15105	1943.761584816832	1
0	15129	1946.261584816832	0
0	15185	1953.061000722762	1
0	15199	1953.737509180383	2
0	15200	1954.096338918218	1
0	15220	1956.596338918218	0
0	15240	1958.335130897843	1
0	15242	1959.096338918218	0
0	15312	1971.410859197418	1
0	15313	1971.410859197418	2
0	15320	1972.329323427867	3
0	15323	1972.855025792632	2
0	15342	1975.355025792632	1
0	15349	1977.055987191843	2
0	15356	1977.855025792632	1
0	15367	1978.871305139405	2
0	15368	1978.871305139405	3
0	15372	1980.355025792632	2
0	15391	1982.855025792632	1
0	15421	1985.169040462975	2
0	15423	1985.355025792632	1
0	15438	1986.548809363982	2
0	15440	1987.855025792632	1
0	15457	1990.355025792632	0
0	15580	2004.114426286161	1
0	15581	2004.877267141955	0
0	15592	2006.094907275668	1
0	15593	2006.094907275668	2
0	15603	2007.377267141955	1
0	15617	2009.877267141955	0
0	15623	2010.691628239556	1
0	15636	2012.377267141955	0
0	15642	2012.88740479475	1
0	15650	2014.877267141955	0
0	15675	2017.35474601175	1
0	15677	2017.377267141955	0
0	15683	2018.101484734806	1
0	15697	2019.877267141955	0
0	15763	2029.497394190871	1
0	15768	2030.142890579784	2
0	15783	2031.086489129987	1
0	15796	2032.330268929431	2
0	15805	2033.586489129987	1
0	15812	2033.740936496214	2
0	15830	2036.086489129987	1
0	15851	2038.43282635888	2
0	15852	2038.586489129987	1
0	15869	2041.086489129987	0
0	16063	2068.552250722887	1
0	16068	2068.996991928762	0
0	16090	2071.058232010178	1
0	16095	2071.496991928762	0
0	16117	2072.39117942606	1
0	16123	2072.470170300689	2
0	16127	2073.996991928762	1
0	16147	2074.768025593416	2
0	16152	2076.496991928762	1
0	16169	2078.996991928762	0
0	16208	2083.647335445016	1
0	16209	2083.647335445016	2
0	16219	2085.938877075664	1
0	16238	2088.438877075664	0
0	16256	2089.537852951419	1
0	16265	2090.938877075664	0
0	16271	2090.957453078012	1
0	16287	2093.438877075664	0
0	16296	2094.037298338023	1
0	16309	2095.938877075664	0
0	16319	2096.21959407252	1
0	16326	2096.858025829865	2
0	16339	2098.438877075664	1
0	16369	2100.938877075664	0
0	16389	2103.113490087801	1
0	16391	2103.438877075664	0
0	16492	2116.712636406629	1
0	16500	2117.876098955984	2
0	16507	2119.212636406629	1
0	16531	2121.712636406629	0
0	16581	2126.876190548088	1
0	16586	2127.879530318372	0
0	16592	2128.013639363134	1
0	16601	2128.52350015977	2
0	16616	2130.379530318372	1
0	16623	2130.389014785037	2
0	16641	2132.879530318372	1
0	16663	2135.379530318372	0
0	16679	2137.308643275339	1
0	16680	2137.879530318372	0
0	16692	2139.348441552316	1
0	16700	2140.379530318372	0
0	16741	2144.913459576607	1
0	16749	2146.646373935084	2
0	16753	2147.413459576607	1
0	16763	2149.610606637707	2
0	16764	2149.913459576607	1
0	16771	2150.057047211628	2
0	16775	2152.413459576607	1
0	16786	2154.913459576607	0
0	16998	2183.85583319749	1
0	17012	2185.378449961487	0
0	17084	2194.105510961121	1
0	17097	2195.866293100857	0
0	17109	2196.856194125096	1
0	17122	2198.366293100857	0
0	17160	2202.323357073342	1
0	17170	2204.823357073342	0
0	17209	2211.953695118587	1
0	17215	2212.428679812243	2
0	17216	2212.710887453747	1
0	17226	2213.48377804025	2
0	17241	2214.862667972636	3
0	17246	2215.210887453747	2
0	17258	2217.710887453747	1
0	17267	2220.210887453747	0
0	17309	2227.292678999742	1
0	17314	2228.53320818603	2
0	17320	2229.142758840692	1
0	17328	2229.373145229939	2
0	17329	2229.373145229939	3
0	17333	2229.738520249973	4
0	17343	2231.642758840692	3
0	17370	2234.142758840692	2
0	17377	2234.417085511813	3
0	17387	2236.642758840692	2
0	17406	2239.142758840692	1
0	17428	2241.642758840692	0
0	17454	2243.933758532679	1
0	17455	2244.142758840692	0
0	17504	2251.620873648674	1
0	17512	2252.294048207751	0
0	17556	2258.207166686891	1
0	17569	2260.097835535254	0
0	17628	2267.960661195994	1
0	17635	2269.377468301709	0
0	17670	2274.646459228714	1
0	17674	2276.144317236028	0
0	17872	2304.847404218018	1
0	17873	2304.847404218018	2
0	17874	2305.48951382518	1
0	17888	2307.98951382518	0
0	17908	2310.064804302223	1
0	17910	2310.48951382518	0
0	18038	2327.748830767586	1
0	18058	2330.005531901168	0
0	18203	2346.068426037177	1
0	18219	2347.26153285637	0
0	18267	2353.123794821031	1
0	18269	2353.668915100978	0
0	18342	2360.186347414165	1
0	18343	2360.540659028001	0
0	18349	2361.060079080715	1
0	18363	2361.797682800046	2
0	18368	2363.040659028001	1
0	18393	2365.540659028001	0
0	18400	2365.644714469978	1
0	18404	2365.884813654126	2
0	18416	2366.49095414053	3
0	18428	2368.040659028001	2
0	18443	2370.097942638041	3
0	18450	2370.540659028001	2
0	18457	2371.178506154408	3
0	18467	2372.288186510056	4
0	18475	2373.040659028001	3
0	18488	2374.878778613968	4
0	18489	2375.540659028001	3
0	18502	2376.400608224833	4
0	18511	2378.040659028001	3
0	18525	2380.540659028001	2
0	18550	2383.040659028001	1
0	18569	2385.540659028001	0
0	18589	2387.201415149637	1
0	18594	2388.040659028001	0
0	18654	2396.263745779452	1
0	18655	2396.719525571376	0
0	18684	2399.661955495406	1
0	18689	2399.696304349362	2
0	18707	2402.161955495406	1
0	18727	2404.661955495406	0
0	18737	2405.35385540419	1