version 3
run MMc-24-20221127-11:38:41-21264
attr configname MMc
attr datetime 20221127-11:38:41
attr datetimef 20221127-113841
attr experiment MMc
attr inifile omnetpp.ini
attr iterationvars "$mean=uniform(0.5s, 1.5s), $dev=0.5*(uniform(0.5s, 1.5s)), $time=2.0, $num=1, $0=53542, $1=75335, $2=34542"
attr iterationvarsd mean=uniform(0.5s,_1.5s)/dev=0.5#2a(uniform(0.5s,_1.5s))/time=2.0/num=1/53542/75335/34542
attr iterationvarsf mean=uniform(0.5s,_1.5s),dev=0.5#2a(uniform(0.5s,_1.5s)),time=2.0,num=1,53542,75335,34542-
attr measurement "$mean=uniform(0.5s, 1.5s), $dev=0.5*(uniform(0.5s, 1.5s)), $time=2.0, $num=1, $0=53542, $1=75335, $2=34542"
attr network MMc
attr processid 21264
attr repetition 0
attr replication #0
attr resultdir results
attr runnumber 24
attr seedset 24
itervar dev "0.5*(uniform(0.5s, 1.5s))"
itervar mean "uniform(0.5s, 1.5s)"
itervar num 1
itervar time 2.0
config description "MMc module"
config network MMc
config MMc.source.interArrivalTime "truncnormal(uniform(0.5s, 1.5s), 0.5*(uniform(0.5s, 1.5s)))"
config MMc.mmc.serviceTime 2.0s
config MMc.mmc.c 1
config MMc.mmc.capacity 10000
config record-eventlog false
config **.scalar-recording true
config **.vector-recording true
config repeat 4
config seed-1-mt 53542
config seed-2-mt 75335
config seed-3-mt 34542
config output-vector-file MMc-1-2.0-results/0.vec
config output-scalar-file MMc-1-2.0-results/0.sca

vector 0 MMc.mmc queueLength:vector ETV
attr interpolationmode none
attr recordingmode vector
attr title "queue length"
vector 1 MMc.mmc util:vector ETV
attr interpolationmode none
attr recordingmode vector
attr title resources
0	0	0	0
0	3	10	1
0	4	12	0
0	7	12.042329050999	1
0	8	12.042329050999	2
0	10	13.828917040457	3
0	11	13.828917040457	4
0	12	14	3
0	15	14.881630056137	4
0	16	14.881630056137	5
0	17	16	4
0	20	16.06613196409	5
0	21	16.06613196409	6
0	23	16.348164484597	7
0	24	16.348164484597	8
0	26	17.041561815345	9
0	27	17.041561815345	10
0	28	18	9
0	31	19.039074099037	10
0	32	19.039074099037	11
0	33	20	10
0	36	20.000791316719	11
0	37	20.000791316719	12
0	39	20.555529287261	13
0	40	20.555529287261	14
0	42	20.793033997073	15
0	43	20.793033997073	16
0	45	20.85100265505	17
0	46	20.85100265505	18
0	48	21.400933597085	19
0	49	21.400933597085	20
0	50	22	19
0	52	24	18
0	55	24.310114417386	19
0	56	24.310114417386	20
0	57	26	19
0	60	26.373050707137	20
0	61	26.373050707137	21
0	63	27.233615002801	22
0	64	27.233615002801	23
0	65	28	22
0	68	29.308563715658	23
0	69	29.308563715658	24
0	71	29.874018183231	25
0	72	29.874018183231	26
0	73	30	25
0	76	30.429060595454	26
0	77	30.429060595454	27
0	79	30.82446344095	28
0	80	30.82446344095	29
0	82	31.594678705821	30
0	83	31.594678705821	31
0	84	32	30
0	87	32.634070275943	31
0	88	32.634070275943	32
0	90	32.823417944342	33
0	91	32.823417944342	34
0	92	34	33
0	95	34.468031116678	34
0	96	34.468031116678	35
0	98	35.023485785163	36
0	99	35.023485785163	37
0	100	36	36
0	103	36.147647049854	37
0	104	36.147647049854	38
0	106	37.383562806149	39
0	107	37.383562806149	40
0	108	38	39
0	111	38.107623083782	40
0	112	38.107623083782	41
0	114	38.792603002876	42
0	115	38.792603002876	43
0	117	39.398343755949	44
0	118	39.398343755949	45
0	120	39.654154894001	46
0	121	39.654154894001	47
0	122	40	46
0	125	40.974429179784	47
0	126	40.974429179784	48
0	128	41.68255279774	49
0	129	41.68255279774	50
0	130	42	49
0	133	42.229035106543	50
0	134	42.229035106543	51
0	136	43.192451161988	52
0	137	43.192451161988	53
0	138	44	52
0	141	44.804351956171	53
0	142	44.804351956171	54
0	143	46	53
0	146	46.554354553884	54
0	147	46.554354553884	55
0	148	48	54
0	151	48.695179210905	55
0	152	48.695179210905	56
0	154	49.136763018149	57
0	155	49.136763018149	58
0	156	50	57
0	159	50.483287601921	58
0	160	50.483287601921	59
0	162	51.688609709195	60
0	163	51.688609709195	61
0	164	52	60
0	167	52.819164394163	61
0	168	52.819164394163	62
0	169	54	61
0	172	54.009653120875	62
0	173	54.009653120875	63
0	175	55.277865144049	64
0	176	55.277865144049	65
0	177	56	64
0	180	56.185869569913	65
0	181	56.185869569913	66
0	183	57.633018793909	67
0	184	57.633018793909	68
0	186	57.732182534788	69
0	187	57.732182534788	70
0	188	58	69
0	191	58.205773407533	70
0	192	58.205773407533	71
0	194	59.187734327662	72
0	195	59.187734327662	73
0	196	60	72
0	199	60.31144835224	73
0	200	60.31144835224	74
0	202	60.76131053006	75
0	203	60.76131053006	76
0	205	61.547537985334	77
0	206	61.547537985334	78
0	207	62	77
0	210	62.255099607275	78
0	211	62.255099607275	79
0	213	63.067250421293	80
0	214	63.067250421293	81
0	215	64	80
0	218	64.18446116707	81
0	219	64.18446116707	82
0	221	65.078891408515	83
0	222	65.078891408515	84
0	224	65.275185010545	85
0	225	65.275185010545	86
0	226	66	85
0	229	66.347281980419	86
0	230	66.347281980419	87
0	232	67.679369570086	88
0	233	67.679369570086	89
0	234	68	88
0	237	68.783951413485	89
0	238	68.783951413485	90
0	240	69.620817917956	91
0	241	69.620817917956	92
0	242	70	91
0	245	71.979875289999	92
0	246	71.979875289999	93
0	247	72	92
0	250	72.427042560589	93
0	251	72.427042560589	94
0	253	73.918147198189	95
0	254	73.918147198189	96
0	255	74	95
0	258	75.287901478072	96
0	259	75.287901478072	97
0	261	75.801419634357	98
0	262	75.801419634357	99
0	263	76	98
0	266	76.142979673344	99
0	267	76.142979673344	100
0	269	77.804868313249	101
0	270	77.804868313249	102
0	271	78	101
0	274	79.040179733367	102
0	275	79.040179733367	103
0	276	80	102
0	279	80.205467918393	103
0	280	80.205467918393	104
0	282	81.534428901085	105
0	283	81.534428901085	106
0	284	82	105
0	287	82.688919239159	106
0	288	82.688919239159	107
0	289	84	106
0	292	84.331787272315	107
0	293	84.331787272315	108
0	295	85.736799417122	109
0	296	85.736799417122	110
0	297	86	109
0	300	86.341986147009	110
0	301	86.341986147009	111
0	303	87.616484220906	112
0	304	87.616484220906	113
0	305	88	112
0	308	88.895887438151	113
0	309	88.895887438151	114
0	310	90	113
0	313	90.033265387254	114
0	314	90.033265387254	115
0	316	91.254155140191	116
0	317	91.254155140191	117
0	318	92	116
0	321	92.833438801283	117
0	322	92.833438801283	118
0	324	93.947002383432	119
0	325	93.947002383432	120
0	326	94	119
0	329	94.698220803892	120
0	330	94.698220803892	121
0	332	95.904436049603	122
0	333	95.904436049603	123
0	334	96	122
0	337	97.43613024226	123
0	338	97.43613024226	124
0	340	97.90331118725	125
0	341	97.90331118725	126
0	342	98	125
0	344	100	124
0	347	100.534493845481	125
0	348	100.534493845481	126
0	350	101.294217074715	127
0	351	101.294217074715	128
0	352	102	127
0	355	102.752765711917	128
0	356	102.752765711917	129
0	358	103.471593982667	130
0	359	103.471593982667	131
0	360	104	130
0	363	104.683170821273	131
0	364	104.683170821273	132
0	365	106	131
0	368	106.794842680677	132
0	369	106.794842680677	133
0	371	107.918808720006	134
0	372	107.918808720006	135
0	373	108	134
0	376	109.110958056012	135
0	377	109.110958056012	136
0	378	110	135
0	381	111.043729026559	136
0	382	111.043729026559	137
0	384	111.634931755271	138
0	385	111.634931755271	139
0	386	112	138
0	389	112.291530668437	139
0	390	112.291530668437	140
0	392	112.675516338957	141
0	393	112.675516338957	142
0	395	113.588807291945	143
0	396	113.588807291945	144
0	397	114	143
0	400	115.243967260041	144
0	401	115.243967260041	145
0	402	116	144
0	405	116.862100663697	145
0	406	116.862100663697	146
0	408	117.369985294793	147
0	409	117.369985294793	148
0	410	118	147
0	413	118.377465619241	148
0	414	118.377465619241	149
0	416	119.336418349436	150
0	417	119.336418349436	151
0	418	120	150
0	421	120.345047713023	151
0	422	120.345047713023	152
0	424	121.174900126459	153
0	425	121.174900126459	154
0	427	121.991631014975	155
0	428	121.991631014975	156
0	429	122	155
0	432	123.172609480985	156
0	433	123.172609480985	157
0	434	124	156
0	437	124.008894234519	157
0	438	124.008894234519	158
0	440	125.271451888112	159
0	441	125.271451888112	160
0	443	125.76206727999	161
0	444	125.76206727999	162
0	446	125.887246779311	163
0	447	125.887246779311	164
0	448	126	163
0	451	126.457598231932	164
0	452	126.457598231932	165
0	453	128	164
0	456	128.542464278059	165
0	457	128.542464278059	166
0	459	129.263197250102	167
0	460	129.263197250102	168
0	462	129.487267521305	169
0	463	129.487267521305	170
0	464	130	169
0	467	130.984124805711	170
0	468	130.984124805711	171
0	470	131.815333979265	172
0	471	131.815333979265	173
0	472	132	172
0	475	132.435491724858	173
0	476	132.435491724858	174
0	478	133.630547024246	175
0	479	133.630547024246	176
0	480	134	175
0	483	134.623891058858	176
0	484	134.623891058858	177
0	486	135.708305914131	178
0	487	135.708305914131	179
0	488	136	178
0	491	136.565102404081	179
0	492	136.565102404081	180
0	494	137.889719665739	181
0	495	137.889719665739	182
0	496	138	181
0	499	139.499048740004	182
0	500	139.499048740004	183
0	501	140	182
0	504	140.348812712266	183
0	505	140.348812712266	184
0	507	140.472426161965	185
0	508	140.472426161965	186
0	509	142	185
0	512	142.467079476093	186
0	513	142.467079476093	187
0	515	143.634623144047	188
0	516	143.634623144047	189
0	517	144	188
0	520	145.040438830062	189
0	521	145.040438830062	190
0	522	146	189
0	525	146.609097070281	190
0	526	146.609097070281	191
0	528	147.05411956463	192
0	529	147.05411956463	193
0	531	147.936994027675	194
0	532	147.936994027675	195
0	533	148	194
0	535	150	193
0	538	150.075114107912	194
0	539	150.075114107912	195
0	541	151.761774757064	196
0	542	151.761774757064	197
0	543	152	196
0	546	152.717918023542	197
0	547	152.717918023542	198
0	549	153.7688255137	199
0	550	153.7688255137	200
0	551	154	199
0	554	154.953162610644	200
0	555	154.953162610644	201
0	557	155.806393739548	202
0	558	155.806393739548	203
0	559	156	202
0	562	156.749619561136	203
0	563	156.749619561136	204
0	564	158	203
0	567	158.156904476918	204
0	568	158.156904476918	205
0	570	158.927128991475	206
0	571	158.927128991475	207
0	572	160	206
0	575	160.529575164478	207
0	576	160.529575164478	208
0	578	160.790899864676	209
0	579	160.790899864676	210
0	580	162	209
0	583	162.046717187662	210
0	584	162.046717187662	211
0	586	163.352046802243	212
0	587	163.352046802243	213
0	588	164	212
0	591	164.076218916859	213
0	592	164.076218916859	214
0	594	165.604436771157	215
0	595	165.604436771157	216
0	596	166	215
0	599	166.766646637203	216
0	600	166.766646637203	217
0	602	167.611712722365	218
0	603	167.611712722365	219
0	604	168	218
0	607	168.276767875858	219
0	608	168.276767875858	220
0	610	168.737536822763	221
0	611	168.737536822763	222
0	613	168.933281101831	223
0	614	168.933281101831	224
0	616	169.730639448051	225
0	617	169.730639448051	226
0	618	170	225
0	621	170.534257341103	226
0	622	170.534257341103	227
0	624	171.368069415449	228
0	625	171.368069415449	229
0	627	171.683624228798	230
0	628	171.683624228798	231
0	629	172	230
0	632	173.822246708537	231
0	633	173.822246708537	232
0	634	174	231
0	637	175.722713649154	232
0	638	175.722713649154	233
0	639	176	232
0	642	176.667531858933	233
0	643	176.667531858933	234
0	645	177.115841029416	235
0	646	177.115841029416	236
0	647	178	235
0	650	178.91400943308	236
0	651	178.91400943308	237
0	653	179.186697818947	238
0	654	179.186697818947	239
0	656	179.726213967418	240
0	657	179.726213967418	241
0	659	179.751155731582	242
0	660	179.751155731582	243
0	661	180	242
0	664	180.469753797843	243
0	665	180.469753797843	244
0	667	181.921998475698	245
0	668	181.921998475698	246
0	669	182	245
0	672	183.087531323536	246
0	673	183.087531323536	247
0	674	184	246
0	677	184.818739689398	247
0	678	184.818739689398	248
0	679	186	247
0	682	187.174796212627	248
0	683	187.174796212627	249
0	685	187.841775064541	250
0	686	187.841775064541	251
0	687	188	250
0	690	189.046562803023	251
0	691	189.046562803023	252
0	692	190	251
0	695	190.754622481331	252
0	696	190.754622481331	253
0	697	192	252
0	700	192.211179725593	253
0	701	192.211179725593	254
0	703	193.258960469181	255
0	704	193.258960469181	256
0	705	194	255
0	708	194.418904461045	256
0	709	194.418904461045	257
0	711	194.429791747327	258
0	712	194.429791747327	259
0	714	195.391148109439	260
0	715	195.391148109439	261
0	716	196	260
0	719	197.098766144797	261
0	720	197.098766144797	262
0	721	198	261
0	724	198.169393910895	262
0	725	198.169393910895	263
0	727	198.433025249035	264
0	728	198.433025249035	265
0	730	199.009102680009	266
0	731	199.009102680009	267
0	732	200	266
0	735	200.362873650763	267
0	736	200.362873650763	268
0	738	201.214491750278	269
0	739	201.214491750278	270
0	741	201.963833875278	271
0	742	201.963833875278	272
0	743	202	271
0	746	202.916142217621	272
0	747	202.916142217621	273
0	749	203.199965660946	274
0	750	203.199965660946	275
0	751	204	274
0	754	205.131988724792	275
0	755	205.131988724792	276
0	757	205.595416532787	277
0	758	205.595416532787	278
0	760	205.876954933168	279
0	761	205.876954933168	280
0	762	206	279
0	765	206.399074043105	280
0	766	206.399074043105	281
0	768	207.773538900295	282
0	769	207.773538900295	283
0	770	208	282
0	773	209.321521202039	283
0	774	209.321521202039	284
0	775	210	283
0	778	210.446457405444	284
0	779	210.446457405444	285
0	780	212	284
0	783	212.326371234238	285
0	784	212.326371234238	286
0	786	213.977278663665	287
0	787	213.977278663665	288
0	788	214	287
0	791	215.444771560167	288
0	792	215.444771560167	289
0	793	216	288
0	796	216.224205492289	289
0	797	216.224205492289	290
0	799	217.661928200363	291
0	800	217.661928200363	292
0	801	218	291
0	804	218.768433651721	292
0	805	218.768433651721	293
0	807	219.81479314057	294
0	808	219.81479314057	295
0	809	220	294
0	812	220.771262759591	295
0	813	220.771262759591	296
0	815	221.681016039809	297
0	816	221.681016039809	298
0	817	222	297
0	820	222.595721671775	298
0	821	222.595721671775	299
0	823	223.586630627628	300
0	824	223.586630627628	301
0	825	224	300
0	828	224.11077007307	301
0	829	224.11077007307	302
0	831	224.553050191892	303
0	832	224.553050191892	304
0	834	225.032033035507	305
0	835	225.032033035507	306
0	837	225.728314866776	307
0	838	225.728314866776	308
0	839	226	307
0	842	226.776352060096	308
0	843	226.776352060096	309
0	844	228	308
0	847	228.125168542405	309
0	848	228.125168542405	310
0	850	228.701698253095	311
0	851	228.701698253095	312
0	852	230	311
0	855	230.591946297803	312
0	856	230.591946297803	313
0	858	231.995621550292	314
0	859	231.995621550292	315
0	860	232	314
0	863	233.168311245987	315
0	864	233.168311245987	316
0	866	233.857848808903	317
0	867	233.857848808903	318
0	868	234	317
0	871	235.240858645483	318
0	872	235.240858645483	319
0	873	236	318
0	876	236.323288434482	319
0	877	236.323288434482	320
0	879	237.054120805524	321
0	880	237.054120805524	322
0	881	238	321
0	884	238.072649957337	322
0	885	238.072649957337	323
0	887	239.682001078029	324
0	888	239.682001078029	325
0	889	240	324
0	892	240.380075801094	325
0	893	240.380075801094	326
0	895	241.917610197912	327
0	896	241.917610197912	328
0	897	242	327
0	900	243.609849623911	328
0	901	243.609849623911	329
0	902	244	328
0	905	244.391997355019	329
0	906	244.391997355019	330
0	908	245.019840362651	331
0	909	245.019840362651	332
0	910	246	331
0	913	246.307990264666	332
0	914	246.307990264666	333
0	916	247.384590076149	334
0	917	247.384590076149	335
0	919	247.959268828002	336
0	920	247.959268828002	337
0	921	248	336
0	924	249.58189134715	337
0	925	249.58189134715	338
0	926	250	337
0	929	250.381885848548	338
0	930	250.381885848548	339
0	932	250.788420337811	340
0	933	250.788420337811	341
0	934	252	340
0	937	252.265337390479	341
0	938	252.265337390479	342
0	939	254	341
0	942	254.073429673965	342
0	943	254.073429673965	343
0	945	254.475273799741	344
0	946	254.475273799741	345
0	948	255.328653041875	346
0	949	255.328653041875	347
0	951	255.614928885391	348
0	952	255.614928885391	349
0	953	256	348
0	956	257.69637816715	349
0	957	257.69637816715	350
0	958	258	349
0	961	258.970101759329	350
0	962	258.970101759329	351
0	963	260	350
0	966	260.053772712707	351
0	967	260.053772712707	352
0	969	261.307929393985	353
0	970	261.307929393985	354
0	972	261.848121471287	355
0	973	261.848121471287	356
0	974	262	355
0	977	262.955514528692	356
0	978	262.955514528692	357
0	980	262.971720370996	358
0	981	262.971720370996	359
0	983	263.256711431651	360
0	984	263.256711431651	361
0	985	264	360
0	988	264.421848100634	361
0	989	264.421848100634	362
0	991	264.519138892796	363
0	992	264.519138892796	364
0	994	265.373014079686	365
0	995	265.373014079686	366
0	996	266	365
0	999	266.329018601915	366
0	1000	266.329018601915	367
0	1002	267.254736646509	368
0	1003	267.254736646509	369
0	1005	267.880135487388	370
0	1006	267.880135487388	371
0	1007	268	370
0	1010	269.561470202121	371
0	1011	269.561470202121	372
0	1012	270	371
0	1015	270.4693620594	372
0	1016	270.4693620594	373
0	1018	271.849008675396	374
0	1019	271.849008675396	375
0	1020	272	374
0	1023	272.492549626506	375
0	1024	272.492549626506	376
0	1026	273.450512459475	377
0	1027	273.450512459475	378
0	1028	274	377
0	1031	274.26237481004	378
0	1032	274.26237481004	379
0	1034	275.777968393502	380
0	1035	275.777968393502	381
0	1037	275.80475870083	382
0	1038	275.80475870083	383
0	1039	276	382
0	1042	277.226791896806	383
0	1043	277.226791896806	384
0	1044	278	383
0	1047	278.071319412093	384
0	1048	278.071319412093	385
0	1050	279.504273540923	386
0	1051	279.504273540923	387
0	1053	279.818860902038	388
0	1054	279.818860902038	389
0	1055	280	388
0	1058	280.135507152166	389
0	1059	280.135507152166	390
0	1061	281.458620819675	391
0	1062	281.458620819675	392
0	1063	282	391
0	1066	283.261411063712	392
0	1067	283.261411063712	393
0	1068	284	392
0	1071	284.159087066289	393
0	1072	284.159087066289	394
0	1074	285.237405654929	395
0	1075	285.237405654929	396
0	1077	285.298698287095	397
0	1078	285.298698287095	398
0	1079	286	397
0	1082	286.053384180262	398
0	1083	286.053384180262	399
0	1085	287.392343549816	400
0	1086	287.392343549816	401
0	1087	288	400
0	1090	288.871643828311	401
0	1091	288.871643828311	402
0	1092	290	401
0	1095	290.453677176279	402
0	1096	290.453677176279	403
0	1097	292	402
0	1100	292.500596181384	403
0	1101	292.500596181384	404
0	1103	293.584778952463	405
0	1104	293.584778952463	406
0	1105	294	405
0	1108	294.789970923265	406
0	1109	294.789970923265	407
0	1111	295.554054130415	408
0	1112	295.554054130415	409
0	1113	296	408
0	1116	296.147067368398	409
0	1117	296.147067368398	410
0	1119	297.086756520118	411
0	1120	297.086756520118	412
0	1121	298	411
0	1124	298.553456334417	412
0	1125	298.553456334417	413
0	1126	300	412
0	1129	300.036248986825	413
0	1130	300.036248986825	414
0	1132	300.589853869116	415
0	1133	300.589853869116	416
0	1135	301.477414074982	417
0	1136	301.477414074982	418
0	1137	302	417
0	1140	302.350940147198	418
0	1141	302.350940147198	419
0	1143	302.506377521783	420
0	1144	302.506377521783	421
0	1146	303.878082346683	422
0	1147	303.878082346683	423
0	1148	304	422
0	1151	305.810142824652	423
0	1152	305.810142824652	424
0	1153	306	423
0	1156	306.598061621667	424
0	1157	306.598061621667	425
0	1159	307.082867680104	426
0	1160	307.082867680104	427
0	1161	308	426
0	1164	308.162241388915	427
0	1165	308.162241388915	428
0	1166	310	427
0	1169	310.010586754534	428
0	1170	310.010586754534	429
0	1172	310.323737915473	430
0	1173	310.323737915473	431
0	1175	311.202413426671	432
0	1176	311.202413426671	433
0	1177	312	432
0	1180	312.252847804806	433
0	1181	312.252847804806	434
0	1183	312.586788401093	435
0	1184	312.586788401093	436
0	1186	313.701343172713	437
0	1187	313.701343172713	438
0	1188	314	437
0	1191	314.624056278624	438
0	1192	314.624056278624	439
0	1194	314.945537808065	440
0	1195	314.945537808065	441
0	1196	316	440
0	1199	316.379226873895	441
0	1200	316.379226873895	442
0	1202	316.476739541731	443
0	1203	316.476739541731	444
0	1204	318	443
0	1207	319.187746276539	444
0	1208	319.187746276539	445
0	1209	320	444
0	1212	320.006644256145	445
0	1213	320.006644256145	446
0	1215	320.431274573827	447
0	1216	320.431274573827	448
0	1218	321.156812253136	449
0	1219	321.156812253136	450
0	1220	322	449
0	1223	322.433216042005	450
0	1224	322.433216042005	451
0	1226	323.545700487988	452
0	1227	323.545700487988	453
0	1228	324	452
0	1231	324.276201783133	453
0	1232	324.276201783133	454
0	1234	324.771376287611	455
0	1235	324.771376287611	456
0	1237	325.805683000902	457
0	1238	325.805683000902	458
0	1239	326	457
0	1242	327.854341414736	458
0	1243	327.854341414736	459
0	1244	328	458
0	1247	328.287118350601	459
0	1248	328.287118350601	460
0	1250	329.441223082578	461
0	1251	329.441223082578	462
0	1253	329.772115149873	463
0	1254	329.772115149873	464
0	1255	330	463
0	1258	330.92712825026	464
0	1259	330.92712825026	465
0	1260	332	464
0	1263	332.194241988413	465
0	1264	332.194241988413	466
0	1265	334	465
0	1268	334.084238155851	466
0	1269	334.084238155851	467
0	1271	334.438199561563	468
0	1272	334.438199561563	469
0	1274	335.942784816626	470
0	1275	335.942784816626	471
0	1276	336	470
0	1279	337.949513898209	471
0	1280	337.949513898209	472
0	1281	338	471
0	1284	338.703446527466	472
0	1285	338.703446527466	473
0	1287	339.3486812985	474
0	1288	339.3486812985	475
0	1289	340	474
0	1292	340.102031728627	475
0	1293	340.102031728627	476
0	1295	341.128381544651	477
0	1296	341.128381544651	478
0	1297	342	477
0	1300	342.175772826738	478
0	1301	342.175772826738	479
0	1303	342.31816210607	480
0	1304	342.31816210607	481
0	1306	343.181935667461	482
0	1307	343.181935667461	483
0	1309	343.785846115681	484
0	1310	343.785846115681	485
0	1311	344	484
0	1314	345.729099130292	485
0	1315	345.729099130292	486
0	1316	346	485
0	1319	347.059316745646	486
0	1320	347.059316745646	487
0	1322	347.946047298987	488
0	1323	347.946047298987	489
0	1324	348	488
0	1327	348.385509305741	489
0	1328	348.385509305741	490
0	1330	349.820685670804	491
0	1331	349.820685670804	492
0	1332	350	491
0	1335	351.148452096047	492
0	1336	351.148452096047	493
0	1337	352	492
0	1340	352.356393795557	493
0	1341	352.356393795557	494
0	1343	353.377623907032	495
0	1344	353.377623907032	496
0	1345	354	495
0	1348	354.995772967042	496
0	1349	354.995772967042	497
0	1351	355.902656772859	498
0	1352	355.902656772859	499
0	1353	356	498
0	1356	357.426366432365	499
0	1357	357.426366432365	500
0	1358	358	499
0	1361	358.062023192232	500
0	1362	358.062023192232	501
0	1364	358.50699099438	502
0	1365	358.50699099438	503
0	1367	358.533749173202	504
0	1368	358.533749173202	505
0	1370	359.496165992791	506
0	1371	359.496165992791	507
0	1372	360	506
0	1375	360.106410351444	507
0	1376	360.106410351444	508
0	1378	361.087392916889	509
0	1379	361.087392916889	510
0	1380	362	509
0	1383	362.352392458977	510
0	1384	362.352392458977	511
0	1386	363.173067103729	512
0	1387	363.173067103729	513
0	1389	363.531737394488	514
0	1390	363.531737394488	515
0	1391	364	514
0	1394	364.015946210106	515
0	1395	364.015946210106	516
0	1397	365.142281867901	517
0	1398	365.142281867901	518
0	1400	365.820532297052	519
0	1401	365.820532297052	520
0	1402	366	519
0	1405	366.835708742628	520
0	1406	366.835708742628	521
0	1408	367.459821068029	522
0	1409	367.459821068029	523
0	1410	368	522
0	1413	368.297471477894	523
0	1414	368.297471477894	524
0	1416	369.912720785139	525
0	1417	369.912720785139	526
0	1418	370	525
0	1421	371.828979915459	526
0	1422	371.828979915459	527
0	1423	372	526
0	1426	373.694679485345	527
0	1427	373.694679485345	528
0	1428	374	527
0	1431	374.761705236867	528
0	1432	374.761705236867	529
0	1433	376	528
0	1436	376.010597462752	529
0	1437	376.010597462752	530
0	1439	377.388822814668	531
0	1440	377.388822814668	532
0	1441	378	531
0	1444	379.329095681522	532
0	1445	379.329095681522	533
0	1447	379.561784906094	534
0	1448	379.561784906094	535
0	1449	380	534
0	1452	380.482701345357	535
0	1453	380.482701345357	536
0	1455	380.689320911719	537
0	1456	380.689320911719	538
0	1457	382	537
0	1460	382.152496521691	538
0	1461	382.152496521691	539
0	1463	382.466039449103	540
0	1464	382.466039449103	541
0	1466	383.312575432156	542
0	1467	383.312575432156	543
0	1468	384	542
0	1471	384.856861921211	543
0	1472	384.856861921211	544
0	1473	386	543
0	1476	386.409617194887	544
0	1477	386.409617194887	545
0	1479	387.235867205866	546
0	1480	387.235867205866	547
0	1481	388	546
0	1484	388.331167335955	547
0	1485	388.331167335955	548
0	1487	389.200006227055	549
0	1488	389.200006227055	550
0	1490	389.963108480821	551
0	1491	389.963108480821	552
0	1492	390	551
0	1495	390.457466059872	552
0	1496	390.457466059872	553
0	1498	391.949241210967	554
0	1499	391.949241210967	555
0	1500	392	554
0	1503	393.303073034175	555
0	1504	393.303073034175	556
0	1505	394	555
0	1508	394.179382366028	556
0	1509	394.179382366028	557
0	1511	394.761697760265	558
0	1512	394.761697760265	559
0	1513	396	558
0	1516	397.111098747484	559
0	1517	397.111098747484	560
0	1518	398	559
0	1521	398.584603356454	560
0	1522	398.584603356454	561
0	1524	399.576034627911	562
0	1525	399.576034627911	563
0	1526	400	562
0	1529	400.831955254724	563
0	1530	400.831955254724	564
0	1531	402	563
0	1534	402.635513291496	564
0	1535	402.635513291496	565
0	1536	404	564
0	1539	404.882758753569	565
0	1540	404.882758753569	566
0	1541	406	565
0	1544	406.294725927006	566
0	1545	406.294725927006	567
0	1547	407.1513789825	568
0	1548	407.1513789825	569
0	1549	408	568
0	1552	408.764660220844	569
0	1553	408.764660220844	570
0	1555	409.369882330215	571
0	1556	409.369882330215	572
0	1557	410	571
0	1560	410.229521376554	572
0	1561	410.229521376554	573
0	1563	410.815258504565	574
0	1564	410.815258504565	575
0	1565	412	574
0	1568	412.823116514896	575
0	1569	412.823116514896	576
0	1570	414	575
0	1573	414.504766712008	576
0	1574	414.504766712008	577
0	1576	415.356221673137	578
0	1577	415.356221673137	579
0	1578	416	578
0	1581	416.266270341585	579
0	1582	416.266270341585	580
0	1584	417.507736403763	581
0	1585	417.507736403763	582
0	1586	418	581
0	1589	419.137155939817	582
0	1590	419.137155939817	583
0	1592	419.696875575741	584
0	1593	419.696875575741	585
0	1594	420	584
0	1597	421.095847878151	585
0	1598	421.095847878151	586
0	1600	421.371441461224	587
0	1601	421.371441461224	588
0	1602	422	587
0	1605	422.632617629453	588
0	1606	422.632617629453	589
0	1608	423.753868559879	590
0	1609	423.753868559879	591
0	1610	424	590
0	1613	424.691305877915	591
0	1614	424.691305877915	592
0	1616	425.200605224132	593
0	1617	425.200605224132	594
0	1619	425.60724429102	595
0	1620	425.60724429102	596
0	1621	426	595
0	1624	426.307781164399	596
0	1625	426.307781164399	597
0	1627	427.41549085068	598
0	1628	427.41549085068	599
0	1629	428	598
0	1632	428.421793072405	599
0	1633	428.421793072405	600
0	1634	430	599
0	1637	430.450688315389	600
0	1638	430.450688315389	601
0	1640	431.44386611631	602
0	1641	431.44386611631	603
0	1642	432	602
0	1645	432.331060145926	603
0	1646	432.331060145926	604
0	1648	433.240351411285	605
0	1649	433.240351411285	606
0	1650	434	605
0	1653	434.261982630287	606
0	1654	434.261982630287	607
0	1656	434.722005024462	608
0	1657	434.722005024462	609
0	1659	434.835226910184	610
0	1660	434.835226910184	611
0	1662	435.344170942765	612
0	1663	435.344170942765	613
0	1664	436	612
0	1667	436.729608602841	613
0	1668	436.729608602841	614
0	1670	437.758056813599	615
0	1671	437.758056813599	616
0	1672	438	615
0	1675	438.782819024044	616
0	1676	438.782819024044	617
0	1677	440	616
0	1680	440.069412512123	617
0	1681	440.069412512123	618
0	1683	441.445043576654	619
0	1684	441.445043576654	620
0	1686	441.462824083962	621
0	1687	441.462824083962	622
0	1688	442	621
0	1691	442.580327633745	622
0	1692	442.580327633745	623
0	1694	443.007604781712	624
0	1695	443.007604781712	625
0	1696	444	624
0	1699	444.50606520055	625
0	1700	444.50606520055	626
0	1701	446	625
0	1704	446.075380024461	626
0	1705	446.075380024461	627
0	1707	447.920307707773	628
0	1708	447.920307707773	629
0	1709	448	628
0	1712	448.091857194105	629
0	1713	448.091857194105	630
0	1715	448.826723426367	631
0	1716	448.826723426367	632
0	1718	449.999491040193	633
0	1719	449.999491040193	634
0	1720	450	633
0	1723	451.717082063459	634
0	1724	451.717082063459	635
0	1725	452	634
0	1728	452.251532452448	635
0	1729	452.251532452448	636
0	1731	453.464284822847	637
0	1732	453.464284822847	638
0	1733	454	637
0	1736	454.738306040414	638
0	1737	454.738306040414	639
0	1739	455.467851144208	640
0	1740	455.467851144208	641
0	1741	456	640
0	1744	456.616123455644	641
0	1745	456.616123455644	642
0	1747	457.366811703394	643
0	1748	457.366811703394	644
0	1749	458	643
0	1752	458.543163445258	644
0	1753	458.543163445258	645
0	1755	459.820738547058	646
0	1756	459.820738547058	647
0	1757	460	646
0	1760	461.224875651858	647
0	1761	461.224875651858	648
0	1763	461.643926328028	649
0	1764	461.643926328028	650
0	1765	462	649
0	1768	463.671355515473	650
0	1769	463.671355515473	651
0	1770	464	650
0	1773	464.189297254949	651
0	1774	464.189297254949	652
0	1776	464.409675751222	653
0	1777	464.409675751222	654
0	1779	465.235452428851	655
0	1780	465.235452428851	656
0	1781	466	655
0	1784	466.728021689736	656
0	1785	466.728021689736	657
0	1786	468	656
0	1789	468.721557712189	657
0	1790	468.721557712189	658
0	1792	469.926382499565	659
0	1793	469.926382499565	660
0	1794	470	659
0	1797	470.83621490782	660
0	1798	470.83621490782	661
0	1799	472	660
0	1802	472.907712487714	661
0	1803	472.907712487714	662
0	1805	473.938424560651	663
0	1806	473.938424560651	664
0	1807	474	663
0	1810	475.217847318208	664
0	1811	475.217847318208	665
0	1812	476	664
0	1815	476.955975515629	665
0	1816	476.955975515629	666
0	1817	478	665
0	1820	478.569283967211	666
0	1821	478.569283967211	667
0	1823	479.131832685878	668
0	1824	479.131832685878	669
0	1826	479.635467481847	670
0	1827	479.635467481847	671
0	1828	480	670
0	1831	480.793955576938	671
0	1832	480.793955576938	672
0	1834	480.885607239786	673
0	1835	480.885607239786	674
0	1836	482	673
0	1839	482.045300724838	674
0	1840	482.045300724838	675
0	1842	482.507923344895	676
0	1843	482.507923344895	677
0	1844	484	676
0	1847	484.103917698134	677
0	1848	484.103917698134	678
0	1850	484.782235034713	679
0	1851	484.782235034713	680
0	1853	485.597572914622	681
0	1854	485.597572914622	682
0	1855	486	681
0	1858	486.483102715671	682
0	1859	486.483102715671	683
0	1861	487.426296334334	684
0	1862	487.426296334334	685
0	1863	488	684
0	1866	488.220057928866	685
0	1867	488.220057928866	686
0	1869	489.072519422743	687