version 3
run MMc-25-20221127-11:38:41-21264
attr configname MMc
attr datetime 20221127-11:38:41
attr datetimef 20221127-113841
attr experiment MMc
attr inifile omnetpp.ini
attr iterationvars "$mean=uniform(0.5s, 1.5s), $dev=0.5*(uniform(0.5s, 1.5s)), $time=2.0, $num=1, $0=45732, $1=35463, $2=67563"
attr iterationvarsd mean=uniform(0.5s,_1.5s)/dev=0.5#2a(uniform(0.5s,_1.5s))/time=2.0/num=1/45732/35463/67563
attr iterationvarsf mean=uniform(0.5s,_1.5s),dev=0.5#2a(uniform(0.5s,_1.5s)),time=2.0,num=1,45732,35463,67563-
attr measurement "$mean=uniform(0.5s, 1.5s), $dev=0.5*(uniform(0.5s, 1.5s)), $time=2.0, $num=1, $0=45732, $1=35463, $2=67563"
attr network MMc
attr processid 21264
attr repetition 1
attr replication #1
attr resultdir results
attr runnumber 25
attr seedset 25
itervar dev "0.5*(uniform(0.5s, 1.5s))"
itervar mean "uniform(0.5s, 1.5s)"
itervar num 1
itervar time 2.0
config description "MMc module"
config network MMc
config MMc.source.interArrivalTime "truncnormal(uniform(0.5s, 1.5s), 0.5*(uniform(0.5s, 1.5s)))"
config MMc.mmc.serviceTime 2.0s
config MMc.mmc.c 1
config MMc.mmc.capacity 10000
config record-eventlog false
config **.scalar-recording true
config **.vector-recording true
config repeat 4
config seed-1-mt 45732
config seed-2-mt 35463
config seed-3-mt 67563
config output-vector-file MMc-1-2.0-results/1.vec
config output-scalar-file MMc-1-2.0-results/1.sca

vector 0 MMc.mmc queueLength:vector ETV
attr interpolationmode none
attr recordingmode vector
attr title "queue length"
vector 1 MMc.mmc util:vector ETV
attr interpolationmode none
attr recordingmode vector
attr title resources
0	0	0	0
0	3	10	1
0	5	10.64842006413	2
0	6	10.64842006413	3
0	8	11.508123388759	4
0	9	11.508123388759	5
0	10	12	4
0	13	12.40985388673	5
0	14	12.40985388673	6
0	16	13.867171173795	7
0	17	13.867171173795	8
0	18	14	7
0	21	14.949472031519	8
0	22	14.949472031519	9
0	23	16	8
0	26	16.203643055192	9
0	27	16.203643055192	10
0	29	16.580019036328	11
0	30	16.580019036328	12
0	32	16.879676785253	13
0	33	16.879676785253	14
0	35	17.476377254903	15
0	36	17.476377254903	16
0	37	18	15
0	40	18.287381608699	16
0	41	18.287381608699	17
0	43	19.681934146148	18
0	44	19.681934146148	19
0	45	20	18
0	48	20.909258121584	19
0	49	20.909258121584	20
0	51	21.88370941244	21
0	52	21.88370941244	22
0	53	22	21
0	56	22.783918449634	22
0	57	22.783918449634	23
0	58	24	22
0	61	24.033169913347	23
0	62	24.033169913347	24
0	64	25.01114743419	25
0	65	25.01114743419	26
0	67	25.889159277654	27
0	68	25.889159277654	28
0	69	26	27
0	72	27.483979111207	28
0	73	27.483979111207	29
0	74	28	28
0	77	29.33512708243	29
0	78	29.33512708243	30
0	79	30	29
0	82	30.382151906468	30
0	83	30.382151906468	31
0	85	30.901727201423	32
0	86	30.901727201423	33
0	88	31.998524728168	34
0	89	31.998524728168	35
0	90	32	34
0	93	33.819587051975	35
0	94	33.819587051975	36
0	95	34	35
0	98	34.949000614397	36
0	99	34.949000614397	37
0	100	36	36
0	103	36.288336840402	37
0	104	36.288336840402	38
0	106	37.710311815327	39
0	107	37.710311815327	40
0	109	37.747772006479	41
0	110	37.747772006479	42
0	112	37.995654331726	43
0	113	37.995654331726	44
0	114	38	43
0	117	39.814279454887	44
0	118	39.814279454887	45
0	119	40	44
0	122	40.28455936732	45
0	123	40.28455936732	46
0	125	41.218118545543	47
0	126	41.218118545543	48
0	128	41.944061871806	49
0	129	41.944061871806	50
0	130	42	49
0	133	42.543523114576	50
0	134	42.543523114576	51
0	135	44	50
0	138	44.411284458812	51
0	139	44.411284458812	52
0	141	45.224446682266	53
0	142	45.224446682266	54
0	144	45.866605327036	55
0	145	45.866605327036	56
0	146	46	55
0	149	46.138265803676	56
0	150	46.138265803676	57
0	152	47.470201854272	58
0	153	47.470201854272	59
0	154	48	58
0	157	48.608395395743	59
0	158	48.608395395743	60
0	160	49.566627359486	61
0	161	49.566627359486	62
0	162	50	61
0	165	51.623119271701	62
0	166	51.623119271701	63
0	167	52	62
0	170	52.870192881147	63
0	171	52.870192881147	64
0	172	54	63
0	175	54.025673348171	64
0	176	54.025673348171	65
0	178	55.255971461744	66
0	179	55.255971461744	67
0	180	56	66
0	183	56.131659418642	67
0	184	56.131659418642	68
0	186	57.40195375026	69
0	187	57.40195375026	70
0	188	58	69
0	191	58.107430446987	70
0	192	58.107430446987	71
0	194	59.133268532258	72
0	195	59.133268532258	73
0	196	60	72
0	199	60.499551572747	73
0	200	60.499551572747	74
0	202	60.896281262384	75
0	203	60.896281262384	76
0	205	61.214288327875	77
0	206	61.214288327875	78
0	207	62	77
0	210	62.874078222331	78
0	211	62.874078222331	79
0	213	63.820309611171	80
0	214	63.820309611171	81
0	215	64	80
0	217	66	79
0	220	66.612268487965	80
0	221	66.612268487965	81
0	223	67.241751195061	82
0	224	67.241751195061	83
0	225	68	82
0	228	69.168192590318	83
0	229	69.168192590318	84
0	231	69.494326081298	85
0	232	69.494326081298	86
0	233	70	85
0	236	70.6788160471	86
0	237	70.6788160471	87
0	239	71.590225896126	88
0	240	71.590225896126	89
0	241	72	88
0	244	72.502431351363	89
0	245	72.502431351363	90
0	247	72.855876845767	91
0	248	72.855876845767	92
0	249	74	91
0	252	74.111890530784	92
0	253	74.111890530784	93
0	255	74.310568290013	94
0	256	74.310568290013	95
0	258	75.682041940877	96
0	259	75.682041940877	97
0	260	76	96
0	262	78	95
0	265	78.327026063847	96
0	266	78.327026063847	97
0	268	78.971098598744	98
0	269	78.971098598744	99
0	271	79.159322188288	100
0	272	79.159322188288	101
0	273	80	100
0	276	80.562139710042	101
0	277	80.562139710042	102
0	278	82	101
0	281	82.614215029629	102
0	282	82.614215029629	103
0	284	83.572360837792	104
0	285	83.572360837792	105
0	286	84	104
0	289	84.42809161977	105
0	290	84.42809161977	106
0	292	85.168149419568	107
0	293	85.168149419568	108
0	294	86	107
0	297	86.073056322198	108
0	298	86.073056322198	109
0	300	86.474028395097	110
0	301	86.474028395097	111
0	303	86.930771096023	112
0	304	86.930771096023	113
0	305	88	112
0	308	88.578822711948	113
0	309	88.578822711948	114
0	310	90	113
0	313	90.391402042247	114
0	314	90.391402042247	115
0	315	92	114
0	318	92.038855027673	115
0	319	92.038855027673	116
0	321	92.774445522939	117
0	322	92.774445522939	118
0	324	93.482188458892	119
0	325	93.482188458892	120
0	326	94	119
0	329	94.737389655016	120
0	330	94.737389655016	121
0	332	95.363285394764	122
0	333	95.363285394764	123
0	334	96	122
0	337	96.341310498328	123
0	338	96.341310498328	124
0	340	96.823359327926	125
0	341	96.823359327926	126
0	342	98	125
0	345	98.027168543259	126
0	346	98.027168543259	127
0	348	99.018617844455	128
0	349	99.018617844455	129
0	350	100	128
0	353	100.029430245855	129
0	354	100.029430245855	130
0	356	100.615875668266	131
0	357	100.615875668266	132
0	359	101.124350721425	133
0	360	101.124350721425	134
0	361	102	133
0	364	102.245894914453	134
0	365	102.245894914453	135
0	367	103.356085032292	136
0	368	103.356085032292	137
0	369	104	136
0	372	104.317760054638	137
0	373	104.317760054638	138
0	374	106	137
0	377	106.223595544516	138
0	378	106.223595544516	139
0	380	107.323281863473	140
0	381	107.323281863473	141
0	382	108	140
0	385	108.489020579672	141
0	386	108.489020579672	142
0	388	109.47669251518	143
0	389	109.47669251518	144
0	390	110	143
0	393	110.700729641616	144
0	394	110.700729641616	145
0	396	110.94769862312	146
0	397	110.94769862312	147
0	399	111.90141423293	148
0	400	111.90141423293	149
0	401	112	148
0	404	113.429969042848	149
0	405	113.429969042848	150
0	407	113.958315350642	151
0	408	113.958315350642	152
0	409	114	151
0	412	114.794180986808	152
0	413	114.794180986808	153
0	415	115.813808257253	154
0	416	115.813808257253	155
0	417	116	154
0	420	116.828723136094	155
0	421	116.828723136094	156
0	422	118	155
0	425	118.854469778781	156
0	426	118.854469778781	157
0	427	120	156
0	430	120.018753769307	157
0	431	120.018753769307	158
0	433	120.93850156705	159
0	434	120.93850156705	160
0	436	121.293351023479	161
0	437	121.293351023479	162
0	439	121.697025468483	163
0	440	121.697025468483	164
0	441	122	163
0	444	123.429658034955	164
0	445	123.429658034955	165
0	446	124	164
0	449	124.377178755084	165
0	450	124.377178755084	166
0	452	125.65719650833	167
0	453	125.65719650833	168
0	454	126	167
0	457	126.965865373146	168
0	458	126.965865373146	169
0	459	128	168
0	462	128.015376717072	169
0	463	128.015376717072	170
0	465	128.638164018345	171
0	466	128.638164018345	172
0	468	129.323969011745	173
0	469	129.323969011745	174
0	471	129.996498839086	175
0	472	129.996498839086	176
0	473	130	175
0	476	131.622362448802	176
0	477	131.622362448802	177
0	478	132	176
0	481	132.991121358399	177
0	482	132.991121358399	178
0	484	133.74780685008	179
0	485	133.74780685008	180
0	486	134	179
0	489	134.95960400523	180
0	490	134.95960400523	181
0	492	135.522626688944	182
0	493	135.522626688944	183
0	494	136	182
0	497	136.003933249976	183
0	498	136.003933249976	184
0	500	136.903792864775	185
0	501	136.903792864775	186
0	503	137.969673304818	187
0	504	137.969673304818	188
0	505	138	187
0	508	139.721658158356	188
0	509	139.721658158356	189
0	510	140	188
0	513	140.43503868569	189
0	514	140.43503868569	190
0	516	140.495177737759	191
0	517	140.495177737759	192
0	519	141.928092389735	193
0	520	141.928092389735	194
0	521	142	193
0	524	143.058341653721	194
0	525	143.058341653721	195
0	526	144	194
0	529	144.263124495026	195
0	530	144.263124495026	196
0	532	145.073337058271	197
0	533	145.073337058271	198
0	534	146	197
0	537	146.528178834516	198
0	538	146.528178834516	199
0	540	147.029121019775	200
0	541	147.029121019775	201
0	542	148	200
0	545	148.014681178314	201
0	546	148.014681178314	202
0	548	149.2747075965	203
0	549	149.2747075965	204
0	550	150	203
0	553	150.312830356794	204
0	554	150.312830356794	205
0	555	152	204
0	558	152.182340156534	205
0	559	152.182340156534	206
0	561	152.458048511336	207
0	562	152.458048511336	208
0	564	153.199464695248	209
0	565	153.199464695248	210
0	567	153.678969449694	211
0	568	153.678969449694	212
0	570	153.803025441842	213
0	571	153.803025441842	214
0	573	153.988985278438	215
0	574	153.988985278438	216
0	575	154	215
0	578	154.27275727681	216
0	579	154.27275727681	217
0	581	154.809976145318	218
0	582	154.809976145318	219
0	583	156	218
0	586	156.372250511526	219
0	587	156.372250511526	220
0	589	157.103239130925	221
0	590	157.103239130925	222
0	591	158	221
0	594	158.479722235651	222
0	595	158.479722235651	223
0	597	159.791219254122	224
0	598	159.791219254122	225
0	599	160	224
0	602	161.345705120197	225
0	603	161.345705120197	226
0	605	161.999511188311	227
0	606	161.999511188311	228
0	607	162	227
0	610	162.384181877932	228
0	611	162.384181877932	229
0	613	162.638906063078	230
0	614	162.638906063078	231
0	616	163.376709327811	232
0	617	163.376709327811	233
0	618	164	232
0	621	164.732587234793	233
0	622	164.732587234793	234
0	623	166	233
0	626	166.674212674229	234
0	627	166.674212674229	235
0	629	167.82493172539	236
0	630	167.82493172539	237
0	631	168	236
0	634	168.871366898634	237
0	635	168.871366898634	238
0	636	170	237
0	639	170.622615270901	238
0	640	170.622615270901	239
0	641	172	238
0	644	172.771933682024	239
0	645	172.771933682024	240
0	647	173.370849678228	241
0	648	173.370849678228	242
0	649	174	241
0	652	174.999361771377	242
0	653	174.999361771377	243
0	654	176	242
0	657	176.489956354766	243
0	658	176.489956354766	244
0	660	177.241963110792	245
0	661	177.241963110792	246
0	662	178	245
0	665	178.739568026473	246
0	666	178.739568026473	247
0	668	179.473751951935	248
0	669	179.473751951935	249
0	670	180	248
0	673	180.306091234711	249
0	674	180.306091234711	250
0	675	182	249
0	678	182.222081487463	250
0	679	182.222081487463	251
0	680	184	250
0	683	184.615232568595	251
0	684	184.615232568595	252
0	686	185.506525395446	253
0	687	185.506525395446	254
0	688	186	253
0	691	186.898884174891	254
0	692	186.898884174891	255
0	693	188	254
0	696	188.001626318279	255
0	697	188.001626318279	256
0	699	189.237665612938	257
0	700	189.237665612938	258
0	701	190	257
0	704	190.641756632976	258
0	705	190.641756632976	259
0	706	192	258
0	709	192.807865615913	259
0	710	192.807865615913	260
0	712	193.884916420058	261
0	713	193.884916420058	262
0	714	194	261
0	717	195.084772502111	262
0	718	195.084772502111	263
0	719	196	262
0	722	196.485184402437	263
0	723	196.485184402437	264
0	725	197.545504736272	265
0	726	197.545504736272	266
0	727	198	265
0	730	198.33735924834	266
0	731	198.33735924834	267
0	733	199.027518307843	268
0	734	199.027518307843	269
0	736	199.798589893247	270
0	737	199.798589893247	271
0	739	199.820511236396	272
0	740	199.820511236396	273
0	741	200	272
0	744	201.534614197217	273
0	745	201.534614197217	274
0	746	202	273
0	749	202.547079686815	274
0	750	202.547079686815	275
0	751	204	274
0	754	204.247263229729	275
0	755	204.247263229729	276
0	757	204.800615732034	277
0	758	204.800615732034	278
0	760	205.691448364179	279
0	761	205.691448364179	280
0	762	206	279
0	765	206.440624410264	280
0	766	206.440624410264	281
0	768	207.806701634401	282
0	769	207.806701634401	283
0	770	208	282
0	773	209.087936284558	283
0	774	209.087936284558	284
0	776	209.925732317932	285
0	777	209.925732317932	286
0	778	210	285
0	781	210.840556084945	286
0	782	210.840556084945	287
0	784	211.455056479428	288
0	785	211.455056479428	289
0	787	211.890156045596	290
0	788	211.890156045596	291
0	789	212	290
0	792	212.55171984344	291
0	793	212.55171984344	292
0	795	213.808781800824	293
0	796	213.808781800824	294
0	797	214	293
0	800	215.019089974277	294
0	801	215.019089974277	295
0	802	216	294
0	805	216.057209571951	295
0	806	216.057209571951	296
0	807	218	295
0	810	218.622467470079	296
0	811	218.622467470079	297
0	812	220	296
0	815	220.522196466654	297
0	816	220.522196466654	298
0	818	221.335171996624	299
0	819	221.335171996624	300
0	820	222	299
0	823	222.528793851089	300
0	824	222.528793851089	301
0	825	224	300
0	828	224.429153695488	301
0	829	224.429153695488	302
0	831	224.928950061593	303
0	832	224.928950061593	304
0	833	226	303
0	836	226.601033966372	304
0	837	226.601033966372	305
0	839	226.853297509474	306
0	840	226.853297509474	307
0	842	227.719562738498	308
0	843	227.719562738498	309
0	844	228	308
0	847	228.845881725901	309
0	848	228.845881725901	310
0	850	229.918043363852	311
0	851	229.918043363852	312
0	852	230	311
0	855	231.635530187691	312
0	856	231.635530187691	313
0	857	232	312
0	860	232.431733380959	313
0	861	232.431733380959	314
0	863	233.553138004765	315
0	864	233.553138004765	316
0	865	234	315
0	868	235.085888407972	316
0	869	235.085888407972	317
0	870	236	316
0	873	236.559454806296	317
0	874	236.559454806296	318
0	876	237.743309028274	319
0	877	237.743309028274	320
0	878	238	319
0	881	238.437416202663	320
0	882	238.437416202663	321
0	883	240	320
0	886	240.653412302985	321
0	887	240.653412302985	322
0	889	241.763640216467	323
0	890	241.763640216467	324
0	891	242	323
0	894	242.710959768338	324
0	895	242.710959768338	325
0	896	244	324
0	899	244.217058546035	325
0	900	244.217058546035	326
0	902	245.68233795279	327
0	903	245.68233795279	328
0	905	245.748915127562	329
0	906	245.748915127562	330
0	907	246	329
0	910	246.753368139303	330
0	911	246.753368139303	331
0	913	247.154028930867	332
0	914	247.154028930867	333
0	915	248	332
0	918	248.407216271513	333
0	919	248.407216271513	334
0	921	248.477120698002	335
0	922	248.477120698002	336
0	924	249.519136578046	337
0	925	249.519136578046	338
0	926	250	337
0	929	250.694407315224	338
0	930	250.694407315224	339
0	932	250.802870174612	340
0	933	250.802870174612	341
0	934	252	340
0	937	252.192077203917	341
0	938	252.192077203917	342
0	940	253.668229414671	343
0	941	253.668229414671	344
0	942	254	343
0	945	255.466265988581	344
0	946	255.466265988581	345
0	947	256	344
0	950	256.473952437771	345
0	951	256.473952437771	346
0	953	257.686092165225	347
0	954	257.686092165225	348
0	955	258	347
0	958	258.604673110499	348
0	959	258.604673110499	349
0	961	259.324258613629	350
0	962	259.324258613629	351
0	964	259.619421405675	352
0	965	259.619421405675	353
0	966	260	352
0	969	261.100381933662	353
0	970	261.100381933662	354
0	971	262	353
0	974	263.123321455152	354
0	975	263.123321455152	355
0	977	263.54200418283	356
0	978	263.54200418283	357
0	979	264	356
0	982	264.158850680311	357
0	983	264.158850680311	358
0	985	265.653306754368	359
0	986	265.653306754368	360
0	987	266	359
0	990	266.347587377007	360
0	991	266.347587377007	361
0	993	266.473546684477	362
0	994	266.473546684477	363
0	996	267.279340283824	364
0	997	267.279340283824	365
0	998	268	364
0	1001	268.428867507213	365
0	1002	268.428867507213	366
0	1004	269.009750137126	367
0	1005	269.009750137126	368
0	1006	270	367
0	1009	270.365121046384	368
0	1010	270.365121046384	369
0	1012	271.784684710846	370
0	1013	271.784684710846	371
0	1014	272	370
0	1017	272.686650492707	371
0	1018	272.686650492707	372
0	1020	272.816002529896	373
0	1021	272.816002529896	374
0	1023	273.559863784625	375
0	1024	273.559863784625	376
0	1025	274	375
0	1028	274.21771992804	376
0	1029	274.21771992804	377
0	1031	275.847229331334	378
0	1032	275.847229331334	379
0	1033	276	378
0	1036	276.207425203082	379
0	1037	276.207425203082	380
0	1039	276.90278551843	381
0	1040	276.90278551843	382
0	1041	278	381
0	1044	278.213350815055	382
0	1045	278.213350815055	383
0	1046	280	382
0	1049	280.222400217473	383
0	1050	280.222400217473	384
0	1052	281.431895564929	385
0	1053	281.431895564929	386
0	1054	282	385
0	1057	282.836742752545	386
0	1058	282.836742752545	387
0	1059	284	386
0	1062	284.459033669666	387
0	1063	284.459033669666	388
0	1065	285.342705002	389
0	1066	285.342705002	390
0	1068	285.381443330214	391
0	1069	285.381443330214	392
0	1070	286	391
0	1073	286.65678001654	392
0	1074	286.65678001654	393
0	1076	287.425821304758	394
0	1077	287.425821304758	395
0	1078	288	394
0	1081	289.350750001156	395
0	1082	289.350750001156	396
0	1083	290	395
0	1086	290.19972019242	396
0	1087	290.19972019242	397
0	1089	290.726770559385	398
0	1090	290.726770559385	399
0	1092	290.91925792814	400
0	1093	290.91925792814	401
0	1095	291.334734677401	402
0	1096	291.334734677401	403
0	1097	292	402
0	1100	292.474542018707	403
0	1101	292.474542018707	404
0	1103	292.59824289554	405
0	1104	292.59824289554	406
0	1106	293.197356961814	407
0	1107	293.197356961814	408
0	1108	294	407
0	1111	294.518405865841	408
0	1112	294.518405865841	409
0	1114	295.198155500617	410
0	1115	295.198155500617	411
0	1116	296	410
0	1119	297.10654883212	411
0	1120	297.10654883212	412
0	1121	298	411
0	1124	298.18700041919	412
0	1125	298.18700041919	413
0	1127	299.336369391588	414
0	1128	299.336369391588	415
0	1130	299.480386152374	416
0	1131	299.480386152374	417
0	1132	300	416
0	1135	300.261234364852	417
0	1136	300.261234364852	418
0	1138	301.741561243327	419
0	1139	301.741561243327	420
0	1140	302	419
0	1143	303.586705839529	420
0	1144	303.586705839529	421
0	1145	304	420
0	1148	305.291236478523	421
0	1149	305.291236478523	422
0	1150	306	421
0	1153	306.771067087268	422
0	1154	306.771067087268	423
0	1156	307.366065230164	424
0	1157	307.366065230164	425
0	1158	308	424
0	1161	308.565472230433	425
0	1162	308.565472230433	426
0	1163	310	425
0	1166	310.028793604174	426
0	1167	310.028793604174	427
0	1169	310.885106299836	428
0	1170	310.885106299836	429
0	1172	311.445377172828	430
0	1173	311.445377172828	431
0	1174	312	430
0	1177	313.385238364224	431
0	1178	313.385238364224	432
0	1179	314	431
0	1182	314.936980963454	432
0	1183	314.936980963454	433
0	1185	315.299266980099	434
0	1186	315.299266980099	435
0	1188	315.661910893845	436
0	1189	315.661910893845	437
0	1190	316	436
0	1193	316.074697180465	437
0	1194	316.074697180465	438
0	1196	316.747595529026	439
0	1197	316.747595529026	440
0	1199	317.946709336157	441
0	1200	317.946709336157	442
0	1201	318	441
0	1204	318.396012425139	442
0	1205	318.396012425139	443
0	1207	319.0526925215	444
0	1208	319.0526925215	445
0	1210	319.672642014218	446
0	1211	319.672642014218	447
0	1212	320	446
0	1215	321.911182016376	447
0	1216	321.911182016376	448
0	1217	322	447
0	1220	322.845011886397	448
0	1221	322.845011886397	449
0	1223	323.61091717293	450
0	1224	323.61091717293	451
0	1225	324	450
0	1228	324.819906747829	451
0	1229	324.819906747829	452
0	1231	325.184952300116	453
0	1232	325.184952300116	454
0	1233	326	453
0	1236	326.024821717444	454
0	1237	326.024821717444	455
0	1239	326.21420899477	456
0	1240	326.21420899477	457
0	1242	326.885495046782	458
0	1243	326.885495046782	459
0	1244	328	458
0	1247	328.730334052017	459
0	1248	328.730334052017	460
0	1250	329.358893791067	461
0	1251	329.358893791067	462
0	1253	329.758588940544	463
0	1254	329.758588940544	464
0	1255	330	463
0	1258	330.241442414721	464
0	1259	330.241442414721	465
0	1260	332	464
0	1263	332.035359442471	465
0	1264	332.035359442471	466
0	1266	332.972814815909	467
0	1267	332.972814815909	468
0	1269	333.768549774223	469
0	1270	333.768549774223	470
0	1271	334	469
0	1274	335.64837422626	470
0	1275	335.64837422626	471
0	1276	336	470
0	1279	336.304088475962	471
0	1280	336.304088475962	472
0	1282	336.446722218733	473
0	1283	336.446722218733	474
0	1284	338	473
0	1287	338.176123092714	474
0	1288	338.176123092714	475
0	1290	338.957823431155	476
0	1291	338.957823431155	477
0	1292	340	476
0	1295	341.076377216991	477
0	1296	341.076377216991	478
0	1297	342	477
0	1300	342.416839431038	478
0	1301	342.416839431038	479
0	1303	342.971577556207	480
0	1304	342.971577556207	481
0	1306	343.561752915184	482
0	1307	343.561752915184	483
0	1309	343.862232008399	484
0	1310	343.862232008399	485
0	1311	344	484
0	1313	346	483
0	1316	346.03362237747	484
0	1317	346.03362237747	485
0	1319	346.366368186534	486
0	1320	346.366368186534	487
0	1322	347.719730705684	488
0	1323	347.719730705684	489
0	1325	347.995856869906	490
0	1326	347.995856869906	491
0	1327	348	490
0	1330	348.012827452632	491
0	1331	348.012827452632	492
0	1333	348.019668298809	493
0	1334	348.019668298809	494
0	1336	349.211872029449	495
0	1337	349.211872029449	496
0	1338	350	495
0	1341	350.092456781701	496
0	1342	350.092456781701	497
0	1344	351.678116122259	498
0	1345	351.678116122259	499
0	1346	352	498
0	1349	353.112818947072	499
0	1350	353.112818947072	500
0	1351	354	499
0	1354	354.500258483704	500
0	1355	354.500258483704	501
0	1357	354.911088772784	502
0	1358	354.911088772784	503
0	1360	355.675278767711	504
0	1361	355.675278767711	505
0	1362	356	504
0	1365	356.807647036564	505
0	1366	356.807647036564	506
0	1368	357.983737424077	507
0	1369	357.983737424077	508
0	1370	358	507
0	1373	359.435317625249	508
0	1374	359.435317625249	509
0	1375	360	508
0	1378	361.257482513466	509
0	1379	361.257482513466	510
0	1380	362	509
0	1383	362.729621987997	510
0	1384	362.729621987997	511
0	1385	364	510
0	1388	364.355781454896	511
0	1389	364.355781454896	512
0	1391	365.642755187956	513
0	1392	365.642755187956	514
0	1393	366	513
0	1396	366.865918255687	514
0	1397	366.865918255687	515
0	1398	368	514
0	1401	368.012499981312	515
0	1402	368.012499981312	516
0	1404	368.230388254535	517
0	1405	368.230388254535	518
0	1407	368.907900626799	519
0	1408	368.907900626799	520
0	1410	369.301411173905	521
0	1411	369.301411173905	522
0	1412	370	521
0	1415	370.706306209133	522
0	1416	370.706306209133	523
0	1417	372	522
0	1420	372.006515699319	523
0	1421	372.006515699319	524
0	1423	373.37827171856	525
0	1424	373.37827171856	526
0	1425	374	525
0	1428	374.243974884968	526
0	1429	374.243974884968	527
0	1431	375.872531159077	528
0	1432	375.872531159077	529
0	1433	376	528
0	1436	377.32403102913	529
0	1437	377.32403102913	530
0	1438	378	529
0	1441	378.609490244284	530
0	1442	378.609490244284	531
0	1443	380	530
0	1446	380.289473247178	531
0	1447	380.289473247178	532
0	1449	381.669717307255	533
0	1450	381.669717307255	534
0	1451	382	533
0	1454	382.634783743735	534
0	1455	382.634783743735	535
0	1457	383.641854924699	536
0	1458	383.641854924699	537
0	1459	384	536
0	1462	384.559646792753	537
0	1463	384.559646792753	538
0	1465	384.932336864578	539
0	1466	384.932336864578	540
0	1468	385.45376837338	541
0	1469	385.45376837338	542
0	1471	385.918758889958	543
0	1472	385.918758889958	544
0	1473	386	543
0	1476	386.567327174595	544
0	1477	386.567327174595	545
0	1479	387.519145965994	546
0	1480	387.519145965994	547
0	1481	388	546
0	1484	389.648958822402	547
0	1485	389.648958822402	548
0	1486	390	547
0	1489	390.607316337423	548
0	1490	390.607316337423	549
0	1492	391.469617802611	550
0	1493	391.469617802611	551
0	1494	392	550
0	1497	392.542619554633	551
0	1498	392.542619554633	552
0	1500	393.946916106159	553
0	1501	393.946916106159	554
0	1502	394	553
0	1505	395.197931606781	554
0	1506	395.197931606781	555
0	1507	396	554
0	1510	396.102423012985	555
0	1511	396.102423012985	556
0	1513	396.212120416383	557
0	1514	396.212120416383	558
0	1516	397.562641868746	559
0	1517	397.562641868746	560
0	1518	398	559
0	1521	398.758329210232	560
0	1522	398.758329210232	561
0	1524	399.148883669654	562
0	1525	399.148883669654	563
0	1527	399.418763449262	564
0	1528	399.418763449262	565
0	1529	400	564
0	1532	400.670054002195	565
0	1533	400.670054002195	566
0	1535	400.960778278201	567
0	1536	400.960778278201	568
0	1537	402	567
0	1540	402.199410139573	568
0	1541	402.199410139573	569
0	1542	404	568
0	1545	404.024550083664	569
0	1546	404.024550083664	570
0	1548	404.483952737196	571
0	1549	404.483952737196	572
0	1550	406	571
0	1553	406.330524554338	572
0	1554	406.330524554338	573
0	1556	407.250356282217	574
0	1557	407.250356282217	575
0	1558	408	574
0	1561	408.343557521763	575
0	1562	408.343557521763	576
0	1564	409.59639519599	577
0	1565	409.59639519599	578
0	1566	410	577
0	1569	410.819450561418	578
0	1570	410.819450561418	579
0	1572	411.610296388867	580
0	1573	411.610296388867	581
0	1575	411.851849637736	582
0	1576	411.851849637736	583
0	1577	412	582
0	1580	413.932600050267	583
0	1581	413.932600050267	584
0	1582	414	583
0	1585	414.739510719047	584
0	1586	414.739510719047	585
0	1587	416	584
0	1590	416.396350188519	585
0	1591	416.396350188519	586
0	1593	416.877051970732	587
0	1594	416.877051970732	588
0	1595	418	587
0	1598	418.207951848462	588
0	1599	418.207951848462	589
0	1601	418.610432157945	590
0	1602	418.610432157945	591
0	1603	420	590
0	1606	420.232189464761	591
0	1607	420.232189464761	592
0	1609	421.022863889832	593
0	1610	421.022863889832	594
0	1611	422	593
0	1614	422.788886781529	594
0	1615	422.788886781529	595
0	1616	424	594
0	1619	424.103317704844	595
0	1620	424.103317704844	596
0	1622	424.621686722974	597
0	1623	424.621686722974	598
0	1625	425.864898974874	599
0	1626	425.864898974874	600
0	1627	426	599
0	1630	427.226127382068	600
0	1631	427.226127382068	601
0	1632	428	600
0	1635	429.340517037206	601
0	1636	429.340517037206	602
0	1637	430	601
0	1640	430.734075244949	602
0	1641	430.734075244949	603
0	1643	431.57360838512	604
0	1644	431.57360838512	605
0	1645	432	604
0	1648	432.972518341971	605
0	1649	432.972518341971	606
0	1650	434	605
0	1653	434.154058220907	606
0	1654	434.154058220907	607
0	1656	435.773941401902	608
0	1657	435.773941401902	609
0	1658	436	608
0	1661	437.057775784969	609
0	1662	437.057775784969	610
0	1663	438	609
0	1666	438.513191658278	610
0	1667	438.513191658278	611
0	1668	440	610
0	1671	440.003068067509	611
0	1672	440.003068067509	612
0	1674	441.006971166421	613
0	1675	441.006971166421	614
0	1677	441.07075661161	615
0	1678	441.07075661161	616
0	1679	442	615
0	1682	442.599392602905	616
0	1683	442.599392602905	617
0	1685	442.844667718135	618
0	1686	442.844667718135	619
0	1688	443.968614623414	620
0	1689	443.968614623414	621
0	1690	444	620
0	1693	445.193702481891	621
0	1694	445.193702481891	622
0	1695	446	621
0	1698	446.889813493028	622
0	1699	446.889813493028	623
0	1700	448	622
0	1703	448.27056697041	623
0	1704	448.27056697041	624
0	1706	449.009770329426	625
0	1707	449.009770329426	626
0	1709	449.224241899893	627
0	1710	449.224241899893	628
0	1712	449.700852028456	629
0	1713	449.700852028456	630
0	1714	450	629
0	1717	450.760817319394	630
0	1718	450.760817319394	631
0	1720	451.296051404063	632
0	1721	451.296051404063	633
0	1722	452	632
0	1725	452.599040945129	633
0	1726	452.599040945129	634
0	1728	452.639969917867	635
0	1729	452.639969917867	636
0	1731	453.755283928843	637
0	1732	453.755283928843	638
0	1733	454	637
0	1736	454.856342332163	638
0	1737	454.856342332163	639
0	1739	455.334920923289	640
0	1740	455.334920923289	641
0	1741	456	640
0	1744	456.590485359058	641
0	1745	456.590485359058	642
0	1747	456.838459132136	643
0	1748	456.838459132136	644
0	1750	457.60885634424	645
0	1751	457.60885634424	646
0	1752	458	645
0	1755	458.068383653644	646
0	1756	458.068383653644	647
0	1758	459.802429358383	648
0	1759	459.802429358383	649
0	1760	460	648
0	1763	460.30752818011	649
0	1764	460.30752818011	650
0	1766	461.260604338973	651
0	1767	461.260604338973	652
0	1769	461.594139097269	653
0	1770	461.594139097269	654
0	1772	461.897513622242	655
0	1773	461.897513622242	656
0	1774	462	655
0	1777	462.316569169579	656
0	1778	462.316569169579	657
0	1780	463.283055454418	658
0	1781	463.283055454418	659
0	1782	464	658
0	1785	464.946028935369	659
0	1786	464.946028935369	660
0	1787	466	659
0	1790	466.22149362921	660
0	1791	466.22149362921	661
0	1793	467.346864337534	662
0	1794	467.346864337534	663
0	1795	468	662
0	1798	468.486198158833	663
0	1799	468.486198158833	664
0	1801	468.604978263754	665
0	1802	468.604978263754	666
0	1804	469.747438871025	667
0	1805	469.747438871025	668
0	1806	470	667
0	1809	470.393144432054	668
0	1810	470.393144432054	669
0	1812	471.659371084986	670
0	1813	471.659371084986	671
0	1814	472	670
0	1817	473.109246014955	671
0	1818	473.109246014955	672
0	1819	474	671
0	1822	474.246226289511	672
0	1823	474.246226289511	673
0	1825	475.200227274085	674
0	1826	475.200227274085	675
0	1828	475.329654173582	676
0	1829	475.329654173582	677
0	1830	476	676
0	1833	476.607308469654	677
0	1834	476.607308469654	678
0	1836	477.670968455707	679
0	1837	477.670968455707	680
0	1838	478	679
0	1841	479.247378526999	680
0	1842	479.247378526999	681
0	1843	480	680
0	1846	480.337757638743	681
0	1847	480.337757638743	682
0	1849	481.4282091733	683
0	1850	481.4282091733	684
0	1851	482	683
0	1854	482.444454732439	684
0	1855	482.444454732439	685
0	1857	482.799699485428	686
0	1858	482.799699485428	687
0	1860	483.521943469837	688
0	1861	483.521943469837	689
0	1862	484	688
0	1865	484.205955292016	689
0	1866	484.205955292016	690
0	1868	485.071680857411	691
0	1869	485.071680857411	692