version 3
run MMc-26-20221127-11:38:41-21264
attr configname MMc
attr datetime 20221127-11:38:41
attr datetimef 20221127-113841
attr experiment MMc
attr inifile omnetpp.ini
attr iterationvars "$mean=uniform(0.5s, 1.5s), $dev=0.5*(uniform(0.5s, 1.5s)), $time=2.0, $num=1, $0=47853, $1=24674, $2=96433"
attr iterationvarsd mean=uniform(0.5s,_1.5s)/dev=0.5#2a(uniform(0.5s,_1.5s))/time=2.0/num=1/47853/24674/96433
attr iterationvarsf mean=uniform(0.5s,_1.5s),dev=0.5#2a(uniform(0.5s,_1.5s)),time=2.0,num=1,47853,24674,96433-
attr measurement "$mean=uniform(0.5s, 1.5s), $dev=0.5*(uniform(0.5s, 1.5s)), $time=2.0, $num=1, $0=47853, $1=24674, $2=96433"
attr network MMc
attr processid 21264
attr repetition 2
attr replication #2
attr resultdir results
attr runnumber 26
attr seedset 26
itervar dev "0.5*(uniform(0.5s, 1.5s))"
itervar mean "uniform(0.5s, 1.5s)"
itervar num 1
itervar time 2.0
config description "MMc module"
config network MMc
config MMc.source.interArrivalTime "truncnormal(uniform(0.5s, 1.5s), 0.5*(uniform(0.5s, 1.5s)))"
config MMc.mmc.serviceTime 2.0s
config MMc.mmc.c 1
config MMc.mmc.capacity 10000
config record-eventlog false
config **.scalar-recording true
config **.vector-recording true
config repeat 4
config seed-1-mt 47853
config seed-2-mt 24674
config seed-3-mt 96433
config output-vector-file MMc-1-2.0-results/2.vec
config output-scalar-file MMc-1-2.0-results/2.sca

vector 0 MMc.mmc queueLength:vector ETV
attr interpolationmode none
attr recordingmode vector
attr title "queue length"
vector 1 MMc.mmc util:vector ETV
attr interpolationmode none
attr recordingmode vector
attr title resources
0	0	0	0
0	3	10	1
0	5	10.603453166576	2
0	6	10.603453166576	3
0	7	12	2
0	10	12.630183034188	3
0	11	12.630183034188	4
0	12	14	3
0	15	14.030098846114	4
0	16	14.030098846114	5
0	18	15.089787754963	6
0	19	15.089787754963	7
0	20	16	6
0	23	16.050654566113	7
0	24	16.050654566113	8
0	26	16.89428162419	9
0	27	16.89428162419	10
0	29	17.296057755322	11
0	30	17.296057755322	12
0	32	17.768078367421	13
0	33	17.768078367421	14
0	34	18	13
0	37	19.966964181841	14
0	38	19.966964181841	15
0	39	20	14
0	42	20.867970799789	15
0	43	20.867970799789	16
0	45	21.685222712941	17
0	46	21.685222712941	18
0	47	22	17
0	50	23.126250806291	18
0	51	23.126250806291	19
0	53	23.92622705743	20
0	54	23.92622705743	21
0	55	24	20
0	58	25.432968476245	21
0	59	25.432968476245	22
0	61	25.650127870702	23
0	62	25.650127870702	24
0	63	26	23
0	66	26.521754538148	24
0	67	26.521754538148	25
0	69	27.960753698866	26
0	70	27.960753698866	27
0	71	28	26
0	74	28.58603578329	27
0	75	28.58603578329	28
0	77	29.616160252358	29
0	78	29.616160252358	30
0	79	30	29
0	82	31.05203485413	30
0	83	31.05203485413	31
0	84	32	30
0	87	32.482040489357	31
0	88	32.482040489357	32
0	90	32.727796895558	33
0	91	32.727796895558	34
0	92	34	33
0	95	34.787146264299	34
0	96	34.787146264299	35
0	97	36	34
0	100	36.284697986189	35
0	101	36.284697986189	36
0	102	38	35
0	105	38.678891270512	36
0	106	38.678891270512	37
0	108	39.635270290486	38
0	109	39.635270290486	39
0	110	40	38
0	113	40.70210920873	39
0	114	40.70210920873	40
0	115	42	39
0	118	43.119484719837	40
0	119	43.119484719837	41
0	121	43.620436393574	42
0	122	43.620436393574	43
0	123	44	42
0	126	44.024505791525	43
0	127	44.024505791525	44
0	129	44.876964857078	45
0	130	44.876964857078	46
0	132	45.601600652505	47
0	133	45.601600652505	48
0	134	46	47
0	137	47.64173693959	48
0	138	47.64173693959	49
0	139	48	48
0	142	48.568092544464	49
0	143	48.568092544464	50
0	145	49.827829560357	51
0	146	49.827829560357	52
0	147	50	51
0	150	50.272717193792	52
0	151	50.272717193792	53
0	153	50.376143481221	54
0	154	50.376143481221	55
0	156	51.288701295968	56
0	157	51.288701295968	57
0	159	51.829205730413	58
0	160	51.829205730413	59
0	161	52	58
0	164	52.970730815798	59
0	165	52.970730815798	60
0	166	54	59
0	169	54.247431108697	60
0	170	54.247431108697	61
0	172	55.468224078475	62
0	173	55.468224078475	63
0	174	56	62
0	177	56.142110007532	63
0	178	56.142110007532	64
0	180	57.624576592072	65
0	181	57.624576592072	66
0	182	58	65
0	185	58.057294962378	66
0	186	58.057294962378	67
0	188	59.638780571445	68
0	189	59.638780571445	69
0	190	60	68
0	193	60.120220829714	69
0	194	60.120220829714	70
0	196	60.787015536055	71
0	197	60.787015536055	72
0	199	61.488339498771	73
0	200	61.488339498771	74
0	201	62	73
0	204	62.755274074794	74
0	205	62.755274074794	75
0	207	63.098314987137	76
0	208	63.098314987137	77
0	209	64	76
0	212	64.618050629898	77
0	213	64.618050629898	78
0	215	65.293060146674	79
0	216	65.293060146674	80
0	217	66	79
0	220	66.479127899529	80
0	221	66.479127899529	81
0	223	67.235047494052	82
0	224	67.235047494052	83
0	226	67.745632564688	84
0	227	67.745632564688	85
0	228	68	84
0	231	68.314493998982	85
0	232	68.314493998982	86
0	234	68.682697644169	87
0	235	68.682697644169	88
0	237	69.887163138068	89
0	238	69.887163138068	90
0	239	70	89
0	242	71.146876183099	90
0	243	71.146876183099	91
0	244	72	90
0	247	72.921397251099	91
0	248	72.921397251099	92
0	249	74	91
0	252	75.421469788353	92
0	253	75.421469788353	93
0	254	76	92
0	257	76.213620778098	93
0	258	76.213620778098	94
0	260	77.376475716044	95
0	261	77.376475716044	96
0	262	78	95
0	265	78.652545850652	96
0	266	78.652545850652	97
0	268	79.218954684763	98
0	269	79.218954684763	99
0	271	79.71406760629	100
0	272	79.71406760629	101
0	273	80	100
0	276	80.767009689472	101
0	277	80.767009689472	102
0	279	81.525525160424	103
0	280	81.525525160424	104
0	281	82	103
0	284	82.232607703862	104
0	285	82.232607703862	105
0	287	82.699254234899	106
0	288	82.699254234899	107
0	289	84	106
0	292	84.288997585476	107
0	293	84.288997585476	108
0	294	86	107
0	297	86.095214379031	108
0	298	86.095214379031	109
0	300	87.455905027244	110
0	301	87.455905027244	111
0	302	88	110
0	305	88.327415653719	111
0	306	88.327415653719	112
0	308	89.833375911274	113
0	309	89.833375911274	114
0	310	90	113
0	313	90.403477771907	114
0	314	90.403477771907	115
0	316	90.787409111031	116
0	317	90.787409111031	117
0	318	92	116
0	321	92.720997843155	117
0	322	92.720997843155	118
0	323	94	117
0	326	94.124487595393	118
0	327	94.124487595393	119
0	329	95.341682422656	120
0	330	95.341682422656	121
0	331	96	120
0	334	96.660704762335	121
0	335	96.660704762335	122
0	337	97.695046333633	123
0	338	97.695046333633	124
0	339	98	123
0	342	98.490719392138	124
0	343	98.490719392138	125
0	345	98.851481791211	126
0	346	98.851481791211	127
0	347	100	126
0	350	100.365336192281	127
0	351	100.365336192281	128
0	352	102	127
0	355	102.078289117531	128
0	356	102.078289117531	129
0	358	102.614876047068	130
0	359	102.614876047068	131
0	361	103.373286575999	132
0	362	103.373286575999	133
0	363	104	132
0	366	104.605442390562	133
0	367	104.605442390562	134
0	369	104.957486454827	135
0	370	104.957486454827	136
0	372	105.863708672155	137
0	373	105.863708672155	138
0	374	106	137
0	377	107.348728120378	138
0	378	107.348728120378	139
0	379	108	138
0	382	108.541385790296	139
0	383	108.541385790296	140
0	385	109.016386048138	141
0	386	109.016386048138	142
0	387	110	141
0	390	110.414534882778	142
0	391	110.414534882778	143
0	393	111.795379155077	144
0	394	111.795379155077	145
0	395	112	144
0	398	113.218220469529	145
0	399	113.218220469529	146
0	401	113.57077207267	147
0	402	113.57077207267	148
0	403	114	147
0	406	114.346301546608	148
0	407	114.346301546608	149
0	409	115.362788219892	150
0	410	115.362788219892	151
0	411	116	150
0	414	116.864619593163	151
0	415	116.864619593163	152
0	417	117.985715033239	153
0	418	117.985715033239	154
0	419	118	153
0	422	119.41241126164	154
0	423	119.41241126164	155
0	424	120	154
0	427	120.473661374587	155
0	428	120.473661374587	156
0	430	121.502517149636	157
0	431	121.502517149636	158
0	432	122	157
0	435	122.486055717706	158
0	436	122.486055717706	159
0	437	124	158
0	440	124.189544480213	159
0	441	124.189544480213	160
0	443	124.850103991584	161
0	444	124.850103991584	162
0	445	126	161
0	448	126.834609554069	162
0	449	126.834609554069	163
0	451	127.159565316988	164
0	452	127.159565316988	165
0	453	128	164
0	456	128.661003559934	165
0	457	128.661003559934	166
0	458	130	165
0	461	130.374869180728	166
0	462	130.374869180728	167
0	464	131.869888891528	168
0	465	131.869888891528	169
0	466	132	168
0	469	132.81836512668	169
0	470	132.81836512668	170
0	472	133.240584398001	171
0	473	133.240584398001	172
0	475	133.460628259428	173
0	476	133.460628259428	174
0	478	133.570740040528	175
0	479	133.570740040528	176
0	480	134	175
0	483	134.743676771905	176
0	484	134.743676771905	177
0	485	136	176
0	488	136.120566048126	177
0	489	136.120566048126	178
0	491	136.891569302227	179
0	492	136.891569302227	180
0	494	137.499840379802	181
0	495	137.499840379802	182
0	496	138	181
0	499	138.654285328121	182
0	500	138.654285328121	183
0	502	139.100902514506	184
0	503	139.100902514506	185
0	505	139.582966738832	186
0	506	139.582966738832	187
0	507	140	186
0	510	140.277415584089	187
0	511	140.277415584089	188
0	513	141.365598495754	189
0	514	141.365598495754	190
0	515	142	189
0	518	142.076958308348	190
0	519	142.076958308348	191
0	521	142.918641479113	192
0	522	142.918641479113	193
0	523	144	192
0	526	145.108872717528	193
0	527	145.108872717528	194
0	528	146	193
0	531	146.595911179025	194
0	532	146.595911179025	195
0	534	147.653302477519	196
0	535	147.653302477519	197
0	536	148	196
0	539	148.557194461127	197
0	540	148.557194461127	198
0	542	149.427677946688	199
0	543	149.427677946688	200
0	544	150	199
0	547	150.935304678672	200
0	548	150.935304678672	201
0	549	152	200
0	552	153.010709323	201
0	553	153.010709323	202
0	554	154	201
0	557	154.911687799371	202
0	558	154.911687799371	203
0	560	155.194697763112	204
0	561	155.194697763112	205
0	562	156	204
0	565	157.005026038942	205
0	566	157.005026038942	206
0	567	158	205
0	570	158.198809368046	206
0	571	158.198809368046	207
0	573	159.363870104572	208
0	574	159.363870104572	209
0	575	160	208
0	578	160.236406522041	209
0	579	160.236406522041	210
0	581	161.578829275133	211
0	582	161.578829275133	212
0	583	162	211
0	586	162.795454041836	212
0	587	162.795454041836	213
0	589	163.660991581914	214
0	590	163.660991581914	215
0	591	164	214
0	594	164.141134463068	215
0	595	164.141134463068	216
0	596	166	215
0	599	166.1935446653	216
0	600	166.1935446653	217
0	602	166.747014187962	218
0	603	166.747014187962	219
0	604	168	218
0	607	169.839761537838	219
0	608	169.839761537838	220
0	609	170	219
0	612	170.800383176611	220
0	613	170.800383176611	221
0	614	172	220
0	617	172.143366992315	221
0	618	172.143366992315	222
0	620	172.661164776941	223
0	621	172.661164776941	224
0	622	174	223
0	625	174.287545747884	224
0	626	174.287545747884	225
0	628	175.200200606511	226
0	629	175.200200606511	227
0	631	175.917833197117	228
0	632	175.917833197117	229
0	633	176	228
0	636	176.785435631729	229
0	637	176.785435631729	230
0	639	177.23796831809	231
0	640	177.23796831809	232
0	641	178	231
0	644	178.242538960105	232
0	645	178.242538960105	233
0	647	179.09014664687	234
0	648	179.09014664687	235
0	650	179.813547957808	236
0	651	179.813547957808	237
0	652	180	236
0	655	180.240917373788	237
0	656	180.240917373788	238
0	658	180.991493213927	239
0	659	180.991493213927	240
0	661	181.78068180842	241
0	662	181.78068180842	242
0	663	182	241
0	666	182.540402597714	242
0	667	182.540402597714	243
0	669	183.542149660649	244
0	670	183.542149660649	245
0	671	184	244
0	674	184.543949763128	245
0	675	184.543949763128	246
0	677	184.771580391592	247
0	678	184.771580391592	248
0	680	185.805134963276	249
0	681	185.805134963276	250
0	682	186	249
0	685	186.778100468803	250
0	686	186.778100468803	251
0	688	187.222273219415	252
0	689	187.222273219415	253
0	690	188	252
0	693	188.512624247155	253
0	694	188.512624247155	254
0	696	189.232029234923	255
0	697	189.232029234923	256
0	698	190	255
0	701	190.19610593218	256
0	702	190.19610593218	257
0	704	190.841087764481	258
0	705	190.841087764481	259
0	707	191.550786167062	260
0	708	191.550786167062	261
0	709	192	260
0	712	192.777790391486	261
0	713	192.777790391486	262
0	715	193.944947670638	263
0	716	193.944947670638	264
0	717	194	263
0	720	195.279226271464	264
0	721	195.279226271464	265
0	722	196	264
0	725	196.61728784581	265
0	726	196.61728784581	266
0	728	197.287825250787	267
0	729	197.287825250787	268
0	731	197.975793093006	269
0	732	197.975793093006	270
0	733	198	269
0	736	198.90613275892	270
0	737	198.90613275892	271
0	739	199.656439623523	272
0	740	199.656439623523	273
0	741	200	272
0	744	200.738142102991	273
0	745	200.738142102991	274
0	746	202	273
0	749	202.200551548176	274
0	750	202.200551548176	275
0	752	203.221858832086	276
0	753	203.221858832086	277
0	754	204	276
0	757	204.269744800287	277
0	758	204.269744800287	278
0	760	205.787847086937	279
0	761	205.787847086937	280
0	762	206	279
0	765	207.156734742521	280
0	766	207.156734742521	281
0	767	208	280
0	770	208.094352328384	281
0	771	208.094352328384	282
0	773	209.534771159914	283
0	774	209.534771159914	284
0	775	210	283
0	778	210.863577502521	284
0	779	210.863577502521	285
0	781	211.701250141542	286
0	782	211.701250141542	287
0	783	212	286
0	786	212.530247562182	287
0	787	212.530247562182	288
0	789	213.015217723324	289
0	790	213.015217723324	290
0	792	213.790212031353	291
0	793	213.790212031353	292
0	795	213.983132320325	293
0	796	213.983132320325	294
0	797	214	293
0	800	214.905749621275	294
0	801	214.905749621275	295
0	803	215.784409240643	296
0	804	215.784409240643	297
0	806	215.882080051553	298
0	807	215.882080051553	299
0	808	216	298
0	811	216.024016165186	299
0	812	216.024016165186	300
0	814	216.664698015769	301
0	815	216.664698015769	302
0	817	217.271559188528	303
0	818	217.271559188528	304
0	819	218	303
0	822	218.456824519428	304
0	823	218.456824519428	305
0	825	219.799473097593	306
0	826	219.799473097593	307
0	827	220	306
0	830	221.73104357023	307
0	831	221.73104357023	308
0	832	222	307
0	835	222.678628746428	308
0	836	222.678628746428	309
0	837	224	308
0	840	224.17843683002	309
0	841	224.17843683002	310
0	843	225.698288958939	311
0	844	225.698288958939	312
0	845	226	311
0	847	228	310
0	850	228.288634751762	311
0	851	228.288634751762	312
0	853	229.361676305074	313
0	854	229.361676305074	314
0	855	230	313
0	858	230.847647311778	314
0	859	230.847647311778	315
0	861	230.910689927657	316
0	862	230.910689927657	317
0	863	232	316
0	866	232.158143557428	317
0	867	232.158143557428	318
0	869	233.931235733682	319
0	870	233.931235733682	320
0	871	234	319
0	874	234.954625316431	320
0	875	234.954625316431	321
0	877	235.43042186347	322
0	878	235.43042186347	323
0	879	236	322
0	882	236.61649623918	323
0	883	236.61649623918	324
0	885	237.957116080577	325
0	886	237.957116080577	326
0	887	238	325
0	890	239.592027158532	326
0	891	239.592027158532	327
0	893	239.898718690479	328
0	894	239.898718690479	329
0	895	240	328
0	898	241.003669401312	329
0	899	241.003669401312	330
0	901	241.708362441313	331
0	902	241.708362441313	332
0	903	242	331
0	906	243.20042063091	332
0	907	243.20042063091	333
0	908	244	332
0	911	245.071332485775	333
0	912	245.071332485775	334
0	913	246	333
0	916	246.596715931232	334
0	917	246.596715931232	335
0	918	248	334
0	921	248.24622467641	335
0	922	248.24622467641	336
0	923	250	335
0	926	250.473972466195	336
0	927	250.473972466195	337
0	929	251.8520877873	338
0	930	251.8520877873	339
0	931	252	338
0	934	252.205058971681	339
0	935	252.205058971681	340
0	937	253.665345398863	341
0	938	253.665345398863	342
0	939	254	341
0	942	254.252079195737	342
0	943	254.252079195737	343
0	945	254.73955172202	344
0	946	254.73955172202	345
0	947	256	344
0	950	256.314274984805	345
0	951	256.314274984805	346
0	953	257.093190477092	347
0	954	257.093190477092	348
0	956	257.685725938457	349
0	957	257.685725938457	350
0	958	258	349
0	961	258.461251322236	350
0	962	258.461251322236	351
0	963	260	350
0	966	260.223728526057	351
0	967	260.223728526057	352
0	969	261.778378390639	353
0	970	261.778378390639	354
0	971	262	353
0	974	262.139641114156	354
0	975	262.139641114156	355
0	977	263.058000211468	356
0	978	263.058000211468	357
0	979	264	356
0	982	264.849530598076	357
0	983	264.849530598076	358
0	985	265.603764404311	359
0	986	265.603764404311	360
0	987	266	359
0	990	267.208366742085	360
0	991	267.208366742085	361
0	992	268	360
0	995	268.328627112579	361
0	996	268.328627112579	362
0	998	269.649709481992	363
0	999	269.649709481992	364
0	1000	270	363
0	1003	270.446541004006	364
0	1004	270.446541004006	365
0	1006	271.378591729177	366
0	1007	271.378591729177	367
0	1008	272	366
0	1011	272.98230633711	367
0	1012	272.98230633711	368
0	1013	274	367
0	1016	274.380371670341	368
0	1017	274.380371670341	369
0	1019	275.053770451584	370
0	1020	275.053770451584	371
0	1021	276	370
0	1024	276.071015502032	371
0	1025	276.071015502032	372
0	1027	276.832913918368	373
0	1028	276.832913918368	374
0	1030	277.918621861791	375
0	1031	277.918621861791	376
0	1032	278	375
0	1035	279.361799420526	376
0	1036	279.361799420526	377
0	1037	280	376
0	1039	282	375
0	1042	282.005071852607	376
0	1043	282.005071852607	377
0	1045	282.862510934441	378
0	1046	282.862510934441	379
0	1047	284	378
0	1050	284.769267788103	379
0	1051	284.769267788103	380
0	1052	286	379
0	1055	286.011668447046	380
0	1056	286.011668447046	381
0	1058	287.501381954373	382
0	1059	287.501381954373	383
0	1061	287.83249657386	384
0	1062	287.83249657386	385
0	1063	288	384
0	1066	288.376772289925	385
0	1067	288.376772289925	386
0	1069	289.500056432161	387
0	1070	289.500056432161	388
0	1071	290	387
0	1074	291.528655030259	388
0	1075	291.528655030259	389
0	1077	291.810526109823	390
0	1078	291.810526109823	391
0	1079	292	390
0	1082	292.79913706972	391
0	1083	292.79913706972	392
0	1085	293.165634066164	393
0	1086	293.165634066164	394
0	1087	294	393
0	1090	294.012845194366	394
0	1091	294.012845194366	395
0	1093	295.465324625694	396
0	1094	295.465324625694	397
0	1095	296	396
0	1098	296.666763795346	397
0	1099	296.666763795346	398
0	1101	297.960808634548	399
0	1102	297.960808634548	400
0	1103	298	399
0	1106	299.213517192574	400
0	1107	299.213517192574	401
0	1108	300	400
0	1111	301.105233337006	401
0	1112	301.105233337006	402
0	1113	302	401
0	1116	302.678092727687	402
0	1117	302.678092727687	403
0	1118	304	402
0	1121	304.050134407975	403
0	1122	304.050134407975	404
0	1124	305.245603831351	405
0	1125	305.245603831351	406
0	1126	306	405
0	1129	306.625999101546	406
0	1130	306.625999101546	407
0	1131	308	406
0	1134	308.437801314639	407
0	1135	308.437801314639	408
0	1137	309.695047683126	409
0	1138	309.695047683126	410
0	1139	310	409
0	1142	310.91057472548	410
0	1143	310.91057472548	411
0	1144	312	410
0	1147	312.533563783244	411
0	1148	312.533563783244	412
0	1149	314	411
0	1152	314.022345333728	412
0	1153	314.022345333728	413
0	1155	315.307285299226	414
0	1156	315.307285299226	415
0	1158	315.869450908798	416
0	1159	315.869450908798	417
0	1160	316	416
0	1163	316.585771533891	417
0	1164	316.585771533891	418
0	1166	317.935893684194	419
0	1167	317.935893684194	420
0	1169	317.956371941489	421
0	1170	317.956371941489	422
0	1171	318	421
0	1174	318.597477574895	422
0	1175	318.597477574895	423
0	1177	319.636150965471	424
0	1178	319.636150965471	425
0	1179	320	424
0	1182	320.809621044278	425
0	1183	320.809621044278	426
0	1185	321.851259354385	427
0	1186	321.851259354385	428
0	1187	322	427
0	1190	323.104036434089	428
0	1191	323.104036434089	429
0	1193	323.931520029466	430
0	1194	323.931520029466	431
0	1195	324	430
0	1198	325.310649047842	431
0	1199	325.310649047842	432
0	1200	326	431
0	1203	326.56242623143	432
0	1204	326.56242623143	433
0	1206	326.881611378803	434
0	1207	326.881611378803	435
0	1208	328	434
0	1211	329.03036413228	435
0	1212	329.03036413228	436
0	1214	329.12621380967	437
0	1215	329.12621380967	438
0	1217	329.194555488953	439
0	1218	329.194555488953	440
0	1220	329.809501014291	441
0	1221	329.809501014291	442
0	1222	330	441
0	1225	330.659149615081	442
0	1226	330.659149615081	443
0	1227	332	442
0	1230	332.61654929308	443
0	1231	332.61654929308	444
0	1233	333.628465742094	445
0	1234	333.628465742094	446
0	1235	334	445
0	1237	336	444
0	1240	336.071814982724	445
0	1241	336.071814982724	446
0	1242	338	445
0	1245	338.063584276281	446
0	1246	338.063584276281	447
0	1248	339.263145639097	448
0	1249	339.263145639097	449
0	1250	340	448
0	1253	340.700042647148	449
0	1254	340.700042647148	450
0	1255	342	449
0	1258	342.06895824106	450
0	1259	342.06895824106	451
0	1261	342.934397087699	452
0	1262	342.934397087699	453
0	1264	343.523714069297	454
0	1265	343.523714069297	455
0	1266	344	454
0	1269	344.660080770258	455
0	1270	344.660080770258	456
0	1272	345.760067210873	457
0	1273	345.760067210873	458
0	1274	346	457
0	1277	347.026309783416	458
0	1278	347.026309783416	459
0	1280	347.353460591615	460
0	1281	347.353460591615	461
0	1282	348	460
0	1285	349.167817228672	461
0	1286	349.167817228672	462
0	1287	350	461
0	1290	350.54305415961	462
0	1291	350.54305415961	463
0	1293	351.671716998141	464
0	1294	351.671716998141	465
0	1295	352	464
0	1298	352.946806109494	465
0	1299	352.946806109494	466
0	1301	353.638884212252	467
0	1302	353.638884212252	468
0	1303	354	467
0	1306	354.517745030314	468
0	1307	354.517745030314	469
0	1309	355.390861528677	470
0	1310	355.390861528677	471
0	1311	356	470
0	1314	356.409720811402	471
0	1315	356.409720811402	472
0	1317	357.640233488282	473
0	1318	357.640233488282	474
0	1319	358	473
0	1322	358.849476828858	474
0	1323	358.849476828858	475
0	1325	358.959202908921	476
0	1326	358.959202908921	477
0	1328	359.77786625952	478
0	1329	359.77786625952	479
0	1330	360	478
0	1333	360.328541195552	479
0	1334	360.328541195552	480
0	1335	362	479
0	1338	362.565142258842	480
0	1339	362.565142258842	481
0	1341	363.764246068095	482
0	1342	363.764246068095	483
0	1343	364	482
0	1346	365.141164880308	483
0	1347	365.141164880308	484
0	1348	366	483
0	1351	366.538470571972	484
0	1352	366.538470571972	485
0	1354	367.260501406856	486
0	1355	367.260501406856	487
0	1357	367.310625149808	488
0	1358	367.310625149808	489
0	1360	367.942107250809	490
0	1361	367.942107250809	491
0	1362	368	490
0	1365	369.183781977564	491
0	1366	369.183781977564	492
0	1367	370	491
0	1370	370.506897537913	492
0	1371	370.506897537913	493
0	1373	371.413597640058	494
0	1374	371.413597640058	495
0	1375	372	494
0	1378	372.182254149787	495
0	1379	372.182254149787	496
0	1381	373.734547818994	497
0	1382	373.734547818994	498
0	1383	374	497
0	1386	374.10097341024	498
0	1387	374.10097341024	499
0	1389	375.268063177744	500
0	1390	375.268063177744	501
0	1391	376	500
0	1394	376.697037444964	501
0	1395	376.697037444964	502
0	1397	376.947573759734	503
0	1398	376.947573759734	504
0	1400	377.701221568404	505
0	1401	377.701221568404	506
0	1402	378	505
0	1405	379.953459974247	506
0	1406	379.953459974247	507
0	1407	380	506
0	1410	381.915350863598	507
0	1411	381.915350863598	508
0	1413	381.980273159369	509
0	1414	381.980273159369	510
0	1415	382	509
0	1418	382.403854655252	510
0	1419	382.403854655252	511
0	1421	383.150060148089	512
0	1422	383.150060148089	513
0	1424	383.716685700935	514
0	1425	383.716685700935	515
0	1426	384	514
0	1429	384.042348088293	515
0	1430	384.042348088293	516
0	1432	384.94590672782	517
0	1433	384.94590672782	518
0	1434	386	517
0	1437	386.416398397733	518
0	1438	386.416398397733	519
0	1440	387.041111436064	520
0	1441	387.041111436064	521
0	1443	387.643463821427	522
0	1444	387.643463821427	523
0	1445	388	522
0	1448	388.313729983956	523
0	1449	388.313729983956	524
0	1451	389.761826738022	525
0	1452	389.761826738022	526
0	1454	389.908230180212	527
0	1455	389.908230180212	528
0	1456	390	527
0	1458	392	526
0	1461	392.084978657247	527
0	1462	392.084978657247	528
0	1464	392.323313007882	529
0	1465	392.323313007882	530
0	1467	392.6138570587	531
0	1468	392.6138570587	532
0	1470	393.2898071919	533
0	1471	393.2898071919	534
0	1473	393.945504919723	535
0	1474	393.945504919723	536
0	1475	394	535
0	1478	394.525755968823	536
0	1479	394.525755968823	537
0	1481	395.301579093489	538
0	1482	395.301579093489	539
0	1483	396	538
0	1486	396.045658351204	539
0	1487	396.045658351204	540
0	1489	397.199088749639	541
0	1490	397.199088749639	542
0	1491	398	541
0	1494	398.960804589204	542
0	1495	398.960804589204	543
0	1497	399.615345355774	544
0	1498	399.615345355774	545
0	1499	400	544
0	1502	400.568271162798	545
0	1503	400.568271162798	546
0	1505	401.979949006862	547
0	1506	401.979949006862	548
0	1507	402	547
0	1510	403.181205318318	548
0	1511	403.181205318318	549
0	1512	404	548
0	1515	404.021231792679	549
0	1516	404.021231792679	550
0	1518	404.53621714784	551
0	1519	404.53621714784	552
0	1521	405.649753484913	553
0	1522	405.649753484913	554
0	1524	405.79715562327	555
0	1525	405.79715562327	556
0	1526	406	555
0	1529	406.377910000958	556
0	1530	406.377910000958	557
0	1532	406.890937680169	558
0	1533	406.890937680169	559
0	1535	407.728099705993	560
0	1536	407.728099705993	561
0	1538	407.784840477288	562
0	1539	407.784840477288	563
0	1540	408	562
0	1543	408.484103846883	563
0	1544	408.484103846883	564
0	1546	409.766106785019	565
0	1547	409.766106785019	566
0	1548	410	565
0	1551	411.514252543972	566
0	1552	411.514252543972	567
0	1553	412	566
0	1556	412.895750887367	567
0	1557	412.895750887367	568
0	1559	413.580675733042	569
0	1560	413.580675733042	570
0	1561	414	569
0	1564	414.681870516501	570
0	1565	414.681870516501	571
0	1567	415.57446049629	572
0	1568	415.57446049629	573
0	1569	416	572
0	1572	417.231392725811	573
0	1573	417.231392725811	574
0	1574	418	573
0	1577	418.019653870276	574
0	1578	418.019653870276	575
0	1580	419.094083597519	576
0	1581	419.094083597519	577
0	1582	420	576
0	1585	420.270258252347	577
0	1586	420.270258252347	578
0	1588	421.65338415751	579
0	1589	421.65338415751	580
0	1590	422	579
0	1593	423.373738195696	580
0	1594	423.373738195696	581
0	1595	424	580
0	1598	425.160079190972	581
0	1599	425.160079190972	582
0	1600	426	581
0	1603	426.446988858876	582
0	1604	426.446988858876	583
0	1606	427.77388517137	584
0	1607	427.77388517137	585
0	1608	428	584
0	1611	429.11021892452	585
0	1612	429.11021892452	586
0	1614	429.16001345542	587
0	1615	429.16001345542	588
0	1616	430	587
0	1619	430.206852943499	588
0	1620	430.206852943499	589
0	1622	430.78544243074	590
0	1623	430.78544243074	591
0	1625	431.314612005751	592
0	1626	431.314612005751	593
0	1628	431.686112370337	594
0	1629	431.686112370337	595
0	1630	432	594
0	1632	434	593
0	1635	434.316085031579	594
0	1636	434.316085031579	595
0	1638	434.796947999373	596
0	1639	434.796947999373	597
0	1641	435.13447202158	598
0	1642	435.13447202158	599
0	1643	436	598
0	1646	436.625096045954	599
0	1647	436.625096045954	600
0	1649	437.073424677395	601
0	1650	437.073424677395	602
0	1652	437.815459654115	603
0	1653	437.815459654115	604
0	1654	438	603
0	1657	439.127934513624	604
0	1658	439.127934513624	605
0	1659	440	604
0	1662	441.016738693933	605
0	1663	441.016738693933	606
0	1664	442	605
0	1667	442.322412630475	606
0	1668	442.322412630475	607
0	1670	443.126848650752	608
0	1671	443.126848650752	609
0	1672	444	608
0	1675	444.174630989489	609
0	1676	444.174630989489	610
0	1677	446	609
0	1680	446.527732298366	610
0	1681	446.527732298366	611
0	1682	448	610
0	1685	448.373494139865	611
0	1686	448.373494139865	612
0	1688	448.598744628374	613
0	1689	448.598744628374	614
0	1691	449.992255521152	615
0	1692	449.992255521152	616
0	1693	450	615
0	1696	450.284962554906	616
0	1697	450.284962554906	617
0	1699	450.907244905334	618
0	1700	450.907244905334	619
0	1701	452	618
0	1704	452.58848203032	619
0	1705	452.58848203032	620
0	1707	452.795635663797	621
0	1708	452.795635663797	622
0	1709	454	621
0	1712	454.296220197862	622
0	1713	454.296220197862	623
0	1714	456	622
0	1717	456.811697743368	623
0	1718	456.811697743368	624
0	1719	458	623
0	1722	458.355894267019	624
0	1723	458.355894267019	625
0	1724	460	624
0	1727	460.20609835507	625
0	1728	460.20609835507	626
0	1730	461.488674017554	627
0	1731	461.488674017554	628
0	1733	461.950133158924	629
0	1734	461.950133158924	630
0	1735	462	629
0	1738	462.374978990274	630
0	1739	462.374978990274	631
0	1741	463.719784364928	632
0	1742	463.719784364928	633
0	1743	464	632
0	1746	464.191347476121	633
0	1747	464.191347476121	634
0	1749	465.702977949684	635
0	1750	465.702977949684	636
0	1751	466	635
0	1754	466.17267772723	636
0	1755	466.17267772723	637
0	1757	466.604815264453	638
0	1758	466.604815264453	639
0	1759	468	638
0	1762	468.313241813031	639
0	1763	468.313241813031	640
0	1764	470	639
0	1767	470.738553263648	640
0	1768	470.738553263648	641
0	1769	472	640
0	1772	472.543724045252	641
0	1773	472.543724045252	642
0	1775	473.661939311352	643
0	1776	473.661939311352	644
0	1777	474	643
0	1780	475.238423186665	644
0	1781	475.238423186665	645
0	1782	476	644
0	1785	476.131031845543	645
0	1786	476.131031845543	646
0	1788	476.880900186974	647
0	1789	476.880900186974	648
0	1791	477.918256460187	649
0	1792	477.918256460187	650
0	1793	478	649
0	1796	479.894302886428	650
0	1797	479.894302886428	651
0	1798	480	650
0	1801	481.736893183096	651
0	1802	481.736893183096	652
0	1803	482	651
0	1806	483.521218518691	652
0	1807	483.521218518691	653
0	1808	484	652
0	1811	485.378507386348	653
0	1812	485.378507386348	654
0	1813	486	653
0	1816	486.123751108853	654
0	1817	486.123751108853	655
0	1819	487.683866561357	656
0	1820	487.683866561357	657
0	1821	488	656
0	1824	488.334861766492	657
0	1825	488.334861766492	658
0	1827	489.164362016799	659
0	1828	489.164362016799	660
0	1829	490	659
0	1832	490.465384763758	660
0	1833	490.465384763758	661
0	1835	490.760412165392	662
0	1836	490.760412165392	663
0	1838	491.665765378235	664
0	1839	491.665765378235	665
0	1840	492	664
0	1843	493.449528407688	665
0	1844	493.449528407688	666
0	1845	494	665
0	1848	494.188519600011	666
0	1849	494.188519600011	667
0	1851	495.462564235558	668
0	1852	495.462564235558	669
0	1853	496	668
0	1856	496.037669462347	669
0	1857	496.037669462347	670
0	1859	496.779102451944	671
0	1860	496.779102451944	672
0	1861	498	671
0	1864	498.490204584038	672
0	1865	498.490204584038	673
0	1867	499.477298012304	674
0	1868	499.477298012304	675
0	1870	499.988516437319	676
0	1871	499.988516437319	677
0	1872	500	676
0	1875	500.536745157926	677
0	1876	500.536745157926	678
0	1878	501.960367998291	679
0	1879	501.960367998291	680