version 3
run MMc-27-20221127-11:38:41-21264
attr configname MMc
attr datetime 20221127-11:38:41
attr datetimef 20221127-113841
attr experiment MMc
attr inifile omnetpp.ini
attr iterationvars "$mean=uniform(0.5s, 1.5s), $dev=0.5*(uniform(0.5s, 1.5s)), $time=2.0, $num=1, $0=33434, $1=56673, $2=23567"
attr iterationvarsd mean=uniform(0.5s,_1.5s)/dev=0.5#2a(uniform(0.5s,_1.5s))/time=2.0/num=1/33434/56673/23567
attr iterationvarsf mean=uniform(0.5s,_1.5s),dev=0.5#2a(uniform(0.5s,_1.5s)),time=2.0,num=1,33434,56673,23567-
attr measurement "$mean=uniform(0.5s, 1.5s), $dev=0.5*(uniform(0.5s, 1.5s)), $time=2.0, $num=1, $0=33434, $1=56673, $2=23567"
attr network MMc
attr processid 21264
attr repetition 3
attr replication #3
attr resultdir results
attr runnumber 27
attr seedset 27
itervar dev "0.5*(uniform(0.5s, 1.5s))"
itervar mean "uniform(0.5s, 1.5s)"
itervar num 1
itervar time 2.0
config description "MMc module"
config network MMc
config MMc.source.interArrivalTime "truncnormal(uniform(0.5s, 1.5s), 0.5*(uniform(0.5s, 1.5s)))"
config MMc.mmc.serviceTime 2.0s
config MMc.mmc.c 1
config MMc.mmc.capacity 10000
config record-eventlog false
config **.scalar-recording true
config **.vector-recording true
config repeat 4
config seed-1-mt 33434
config seed-2-mt 56673
config seed-3-mt 23567
config output-vector-file MMc-1-2.0-results/3.vec
config output-scalar-file MMc-1-2.0-results/3.sca

vector 0 MMc.mmc queueLength:vector ETV
attr interpolationmode none
attr recordingmode vector
attr title "queue length"
vector 1 MMc.mmc util:vector ETV
attr interpolationmode none
attr recordingmode vector
attr title resources
0	0	0	0
0	3	10	1
0	5	11.7004154667	2
0	6	11.7004154667	3
0	7	12	2
0	10	12.206886949394	3
0	11	12.206886949394	4
0	13	13.688808847247	5
0	14	13.688808847247	6
0	15	14	5
0	18	14.720607073028	6
0	19	14.720607073028	7
0	21	15.512385205683	8
0	22	15.512385205683	9
0	23	16	8
0	26	17.246317611433	9
0	27	17.246317611433	10
0	28	18	9
0	31	18.177867152199	10
0	32	18.177867152199	11
0	34	19.06750866037	12
0	35	19.06750866037	13
0	36	20	12
0	39	20.471367862081	13
0	40	20.471367862081	14
0	42	21.31873536508	15
0	43	21.31873536508	16
0	44	22	15
0	47	22.215446549997	16
0	48	22.215446549997	17
0	50	23.270357129462	18
0	51	23.270357129462	19
0	52	24	18
0	55	24.412679304209	19
0	56	24.412679304209	20
0	58	24.728520121617	21
0	59	24.728520121617	22
0	61	25.086961250509	23
0	62	25.086961250509	24
0	64	25.318032109482	25
0	65	25.318032109482	26
0	66	26	25
0	68	28	24
0	71	28.073641304999	25
0	72	28.073641304999	26
0	74	29.117639021176	27
0	75	29.117639021176	28
0	76	30	27
0	79	30.354044429234	28
0	80	30.354044429234	29
0	82	31.012565522108	30
0	83	31.012565522108	31
0	85	31.566909589465	32
0	86	31.566909589465	33
0	87	32	32
0	90	32.156294311361	33
0	91	32.156294311361	34
0	93	32.256196998995	35
0	94	32.256196998995	36
0	96	33.435947757388	37
0	97	33.435947757388	38
0	98	34	37
0	101	34.034991988674	38
0	102	34.034991988674	39
0	104	35.00021444904	40
0	105	35.00021444904	41
0	106	36	40
0	109	36.28892483288	41
0	110	36.28892483288	42
0	112	36.89045862846	43
0	113	36.89045862846	44
0	115	37.314524308945	45
0	116	37.314524308945	46
0	117	38	45
0	120	39.058875398959	46
0	121	39.058875398959	47
0	122	40	46
0	125	40.623733654887	47
0	126	40.623733654887	48
0	127	42	47
0	130	42.258288711459	48
0	131	42.258288711459	49
0	133	43.893694237718	50
0	134	43.893694237718	51
0	135	44	50
0	138	44.902730746077	51
0	139	44.902730746077	52
0	140	46	51
0	143	46.421432468837	52
0	144	46.421432468837	53
0	146	47.246793131501	54
0	147	47.246793131501	55
0	148	48	54
0	151	48.950400219607	55
0	152	48.950400219607	56
0	154	49.667662923784	57
0	155	49.667662923784	58
0	156	50	57
0	159	50.51565866494	58
0	160	50.51565866494	59
0	162	50.846236315431	60
0	163	50.846236315431	61
0	165	50.923009338906	62
0	166	50.923009338906	63
0	168	51.840603898615	64
0	169	51.840603898615	65
0	170	52	64
0	173	52.640059650761	65
0	174	52.640059650761	66
0	175	54	65
0	178	54.244920692861	66
0	179	54.244920692861	67
0	180	56	66
0	183	56.699792156302	67
0	184	56.699792156302	68
0	186	57.243608294556	69
0	187	57.243608294556	70
0	188	58	69
0	191	58.376079576099	70
0	192	58.376079576099	71
0	193	60	70
0	196	60.209525119939	71
0	197	60.209525119939	72
0	198	62	71
0	201	62.000816357572	72
0	202	62.000816357572	73
0	204	63.470250934536	74
0	205	63.470250934536	75
0	206	64	74
0	209	64.727224590232	75
0	210	64.727224590232	76
0	211	66	75
0	214	66.752049745149	76
0	215	66.752049745149	77
0	217	67.73014805473	78
0	218	67.73014805473	79
0	219	68	78
0	222	68.511700406725	79
0	223	68.511700406725	80
0	225	69.359831322627	81
0	226	69.359831322627	82
0	227	70	81
0	230	70.603987175049	82
0	231	70.603987175049	83
0	233	71.47248085037	84
0	234	71.47248085037	85
0	235	72	84
0	238	72.522146221402	85
0	239	72.522146221402	86
0	241	72.729166566713	87
0	242	72.729166566713	88
0	244	73.731304142333	89
0	245	73.731304142333	90
0	246	74	89
0	249	74.603790219888	90
0	250	74.603790219888	91
0	252	75.411971442525	92
0	253	75.411971442525	93
0	254	76	92
0	257	77.016685767355	93
0	258	77.016685767355	94
0	260	77.629215812408	95
0	261	77.629215812408	96
0	263	77.739277445143	97
0	264	77.739277445143	98
0	265	78	97
0	268	78.50651956536	98
0	269	78.50651956536	99
0	271	79.226281734807	100
0	272	79.226281734807	101
0	273	80	100
0	276	81.39427341374	101
0	277	81.39427341374	102
0	278	82	101
0	281	82.683282830502	102
0	282	82.683282830502	103
0	284	83.751687835061	104
0	285	83.751687835061	105
0	286	84	104
0	289	85.111478312448	105
0	290	85.111478312448	106
0	292	85.73071984405	107
0	293	85.73071984405	108
0	294	86	107
0	297	86.809553555521	108
0	298	86.809553555521	109
0	299	88	108
0	302	89.453235701449	109
0	303	89.453235701449	110
0	304	90	109
0	307	91.104199208555	110
0	308	91.104199208555	111
0	310	91.49903335767	112
0	311	91.49903335767	113
0	312	92	112
0	315	92.790841767925	113
0	316	92.790841767925	114
0	317	94	113
0	320	94.232852775795	114
0	321	94.232852775795	115
0	323	94.570506839568	116
0	324	94.570506839568	117
0	325	96	116
0	328	96.013936988998	117
0	329	96.013936988998	118
0	331	97.58160075061	119
0	332	97.58160075061	120
0	333	98	119
0	336	98.141659452217	120
0	337	98.141659452217	121
0	339	99.09762880411	122
0	340	99.09762880411	123
0	342	99.433605248861	124
0	343	99.433605248861	125
0	344	100	124
0	347	100.866165515272	125
0	348	100.866165515272	126
0	350	101.732759245771	127
0	351	101.732759245771	128
0	352	102	127
0	355	102.557904527774	128
0	356	102.557904527774	129
0	358	103.263989805855	130
0	359	103.263989805855	131
0	360	104	130
0	363	104.993445760817	131
0	364	104.993445760817	132
0	365	106	131
0	368	106.448719705172	132
0	369	106.448719705172	133
0	370	108	132
0	373	108.156901314573	133
0	374	108.156901314573	134
0	376	108.651116718161	135
0	377	108.651116718161	136
0	379	109.881832632819	137
0	380	109.881832632819	138
0	381	110	137
0	383	112	136
0	386	112.022505591631	137
0	387	112.022505591631	138
0	389	113.216071204416	139
0	390	113.216071204416	140
0	391	114	139
0	394	115.732336024044	140
0	395	115.732336024044	141
0	396	116	140
0	399	117.318851310414	141
0	400	117.318851310414	142
0	401	118	141
0	404	118.494820548725	142
0	405	118.494820548725	143
0	407	119.114729859958	144
0	408	119.114729859958	145
0	410	119.144246501283	146
0	411	119.144246501283	147
0	413	119.943631115395	148
0	414	119.943631115395	149
0	415	120	148
0	418	121.608048976106	149
0	419	121.608048976106	150
0	420	122	149
0	423	122.96449683204	150
0	424	122.96449683204	151
0	425	124	150
0	428	124.463275596741	151
0	429	124.463275596741	152
0	431	125.980733825452	153
0	432	125.980733825452	154
0	433	126	153
0	436	126.803058599499	154
0	437	126.803058599499	155
0	439	127.016565096622	156
0	440	127.016565096622	157
0	441	128	156
0	444	128.357453038733	157
0	445	128.357453038733	158
0	446	130	157
0	449	130.610718182189	158
0	450	130.610718182189	159
0	452	131.616229352806	160
0	453	131.616229352806	161
0	454	132	160
0	457	132.740068105589	161
0	458	132.740068105589	162
0	460	133.46197733049	163
0	461	133.46197733049	164
0	462	134	163
0	465	135.292763364297	164
0	466	135.292763364297	165
0	467	136	164
0	470	137.111537052343	165
0	471	137.111537052343	166
0	472	138	165
0	475	138.306916079121	166
0	476	138.306916079121	167
0	477	140	166
0	480	140.644388306992	167
0	481	140.644388306992	168
0	483	140.86846726296	169
0	484	140.86846726296	170
0	486	140.974590247875	171
0	487	140.974590247875	172
0	488	142	171
0	491	142.367802959133	172
0	492	142.367802959133	173
0	494	142.383104494908	174
0	495	142.383104494908	175
0	497	143.20779665954	176
0	498	143.20779665954	177
0	500	143.876521122535	178
0	501	143.876521122535	179
0	502	144	178
0	505	145.15627034952	179
0	506	145.15627034952	180
0	508	145.990900689334	181
0	509	145.990900689334	182
0	510	146	181
0	513	147.490661265543	182
0	514	147.490661265543	183
0	516	147.945617763402	184
0	517	147.945617763402	185
0	518	148	184
0	521	148.90030473687	185
0	522	148.90030473687	186
0	524	148.959675731515	187
0	525	148.959675731515	188
0	526	150	187
0	529	150.071070918635	188
0	530	150.071070918635	189
0	532	151.085732033333	190
0	533	151.085732033333	191
0	535	151.732897541144	192
0	536	151.732897541144	193
0	537	152	192
0	540	152.572511402634	193
0	541	152.572511402634	194
0	542	154	193
0	545	154.111905244509	194
0	546	154.111905244509	195
0	548	155.155916804817	196
0	549	155.155916804817	197
0	550	156	196
0	553	156.556267550607	197
0	554	156.556267550607	198
0	556	157.316881237876	199
0	557	157.316881237876	200
0	558	158	199
0	561	158.139387802041	200
0	562	158.139387802041	201
0	563	160	200
0	566	161.040241785937	201
0	567	161.040241785937	202
0	568	162	201
0	571	162.825476009702	202
0	572	162.825476009702	203
0	573	164	202
0	576	164.032381108748	203
0	577	164.032381108748	204
0	579	164.989555500537	205
0	580	164.989555500537	206
0	582	165.869322997334	207
0	583	165.869322997334	208
0	584	166	207
0	587	167.112218288053	208
0	588	167.112218288053	209
0	589	168	208
0	592	169.358361900586	209
0	593	169.358361900586	210
0	594	170	209
0	597	170.472686163568	210
0	598	170.472686163568	211
0	599	172	210
0	602	172.096323174766	211
0	603	172.096323174766	212
0	605	173.265786704972	213
0	606	173.265786704972	214
0	608	173.466856954596	215
0	609	173.466856954596	216
0	611	173.94154045888	217
0	612	173.94154045888	218
0	613	174	217
0	616	175.681798461174	218
0	617	175.681798461174	219
0	618	176	218
0	621	176.057657389523	219
0	622	176.057657389523	220
0	624	176.545091955986	221
0	625	176.545091955986	222
0	627	176.947702481832	223
0	628	176.947702481832	224
0	629	178	223
0	632	178.36114208555	224
0	633	178.36114208555	225
0	635	179.409600054319	226
0	636	179.409600054319	227
0	637	180	226
0	640	180.454913744144	227
0	641	180.454913744144	228
0	643	181.684593268634	229
0	644	181.684593268634	230
0	645	182	229
0	648	182.237461315256	230
0	649	182.237461315256	231
0	651	182.879069025774	232
0	652	182.879069025774	233
0	653	184	232
0	656	184.444494091223	233
0	657	184.444494091223	234
0	659	185.415237671486	235
0	660	185.415237671486	236
0	662	185.567172034184	237
0	663	185.567172034184	238
0	664	186	237
0	667	186.806731745155	238
0	668	186.806731745155	239
0	669	188	238
0	672	189.239619281753	239
0	673	189.239619281753	240
0	674	190	239
0	677	190.43767553698	240
0	678	190.43767553698	241
0	680	191.59139897265	242
0	681	191.59139897265	243
0	682	192	242
0	685	192.257021672621	243
0	686	192.257021672621	244
0	688	193.543044721572	245
0	689	193.543044721572	246
0	690	194	245
0	693	194.262284778616	246
0	694	194.262284778616	247
0	696	194.997998673125	248
0	697	194.997998673125	249
0	699	195.079868569515	250
0	700	195.079868569515	251
0	701	196	250
0	704	196.647369933018	251
0	705	196.647369933018	252
0	706	198	251
0	709	198.112434470869	252
0	710	198.112434470869	253
0	712	198.730684183368	254
0	713	198.730684183368	255
0	714	200	254
0	717	200.010658295419	255
0	718	200.010658295419	256
0	720	201.12488989366	257
0	721	201.12488989366	258
0	722	202	257
0	725	202.448231744541	258
0	726	202.448231744541	259
0	728	203.753926677507	260
0	729	203.753926677507	261
0	730	204	260
0	733	204.396660694921	261
0	734	204.396660694921	262
0	736	205.047593549978	263
0	737	205.047593549978	264
0	739	205.427122456914	265
0	740	205.427122456914	266
0	741	206	265
0	744	206.552408209126	266
0	745	206.552408209126	267
0	747	207.115697505862	268
0	748	207.115697505862	269
0	750	207.660268363702	270
0	751	207.660268363702	271
0	752	208	270
0	755	209.429613485595	271
0	756	209.429613485595	272
0	758	209.694938601511	273
0	759	209.694938601511	274
0	760	210	273
0	763	210.110261222029	274
0	764	210.110261222029	275
0	766	211.046893177932	276
0	767	211.046893177932	277
0	768	212	276
0	771	212.118536273863	277
0	772	212.118536273863	278
0	774	212.808915873814	279
0	775	212.808915873814	280
0	777	213.946655650647	281
0	778	213.946655650647	282
0	779	214	281
0	782	215.706624118865	282
0	783	215.706624118865	283
0	784	216	282
0	787	216.970893286562	283
0	788	216.970893286562	284
0	789	218	283
0	792	218.429746755515	284
0	793	218.429746755515	285
0	795	218.593748131495	286
0	796	218.593748131495	287
0	798	219.465740619282	288
0	799	219.465740619282	289
0	800	220	288
0	803	220.439663329122	289
0	804	220.439663329122	290
0	806	221.488963749176	291
0	807	221.488963749176	292
0	808	222	291
0	811	222.377381368506	292
0	812	222.377381368506	293
0	814	223.28692734	294
0	815	223.28692734	295
0	816	224	294
0	819	224.89930025137	295
0	820	224.89930025137	296
0	821	226	295
0	824	226.823766273631	296
0	825	226.823766273631	297
0	827	227.026796621712	298
0	828	227.026796621712	299
0	829	228	298
0	832	228.878796523465	299
0	833	228.878796523465	300
0	834	230	299
0	837	230.321002901938	300
0	838	230.321002901938	301
0	840	231.336431698804	302
0	841	231.336431698804	303
0	842	232	302
0	845	232.546041727712	303
0	846	232.546041727712	304
0	848	233.034976009271	305
0	849	233.034976009271	306
0	851	233.652179252841	307
0	852	233.652179252841	308
0	853	234	307
0	856	234.049149943935	308
0	857	234.049149943935	309
0	859	235.395088168145	310
0	860	235.395088168145	311
0	862	235.889429247933	312
0	863	235.889429247933	313
0	864	236	312
0	867	236.369424678055	313
0	868	236.369424678055	314
0	870	237.689593305934	315
0	871	237.689593305934	316
0	872	238	315
0	875	239.245414114927	316
0	876	239.245414114927	317
0	877	240	316
0	880	240.291533317341	317
0	881	240.291533317341	318
0	883	241.475283719217	319
0	884	241.475283719217	320
0	885	242	319
0	888	242.595448898916	320
0	889	242.595448898916	321
0	891	242.971697057551	322
0	892	242.971697057551	323
0	893	244	322
0	896	244.826531171611	323
0	897	244.826531171611	324
0	899	245.417794352202	325
0	900	245.417794352202	326
0	901	246	325
0	904	247.160531051758	326
0	905	247.160531051758	327
0	907	247.727909976478	328
0	908	247.727909976478	329
0	909	248	328
0	912	248.054417733616	329
0	913	248.054417733616	330
0	915	248.594342750735	331
0	916	248.594342750735	332
0	917	250	331
0	920	250.03647718989	332
0	921	250.03647718989	333
0	923	250.979358285291	334
0	924	250.979358285291	335
0	926	251.865824361476	336
0	927	251.865824361476	337
0	928	252	336
0	931	253.454496726194	337
0	932	253.454496726194	338
0	933	254	337
0	936	254.46147243674	338
0	937	254.46147243674	339
0	939	255.305733430635	340
0	940	255.305733430635	341
0	942	255.888099150423	342
0	943	255.888099150423	343
0	944	256	342
0	947	256.8384634276	343
0	948	256.8384634276	344
0	950	257.216480720755	345
0	951	257.216480720755	346
0	952	258	345
0	955	258.782026676927	346
0	956	258.782026676927	347
0	958	259.808865466072	348
0	959	259.808865466072	349
0	960	260	348
0	963	260.433201619892	349
0	964	260.433201619892	350
0	966	261.490577920214	351
0	967	261.490577920214	352
0	968	262	351
0	971	262.099945146761	352
0	972	262.099945146761	353
0	974	263.290181341707	354
0	975	263.290181341707	355
0	976	264	354
0	979	264.540168583994	355
0	980	264.540168583994	356
0	982	265.683448783302	357
0	983	265.683448783302	358
0	984	266	357
0	987	266.350339846954	358
0	988	266.350339846954	359
0	990	267.053681475468	360
0	991	267.053681475468	361
0	992	268	360
0	995	268.08857270572	361
0	996	268.08857270572	362
0	998	269.409167107821	363
0	999	269.409167107821	364
0	1001	269.583105157878	365
0	1002	269.583105157878	366
0	1004	269.603543729745	367
0	1005	269.603543729745	368
0	1006	270	367
0	1009	270.348359393372	368
0	1010	270.348359393372	369
0	1012	271.176795300099	370
0	1013	271.176795300099	371
0	1014	272	370
0	1017	272.478511037322	371
0	1018	272.478511037322	372
0	1020	273.41130448055	373
0	1021	273.41130448055	374
0	1022	274	373
0	1025	275.613265760538	374
0	1026	275.613265760538	375
0	1027	276	374
0	1030	276.54609324196	375
0	1031	276.54609324196	376
0	1033	277.256929947428	377
0	1034	277.256929947428	378
0	1035	278	377
0	1038	278.144296537964	378
0	1039	278.144296537964	379
0	1041	278.613498303102	380
0	1042	278.613498303102	381
0	1044	278.808640467875	382
0	1045	278.808640467875	383
0	1047	279.762365258135	384
0	1048	279.762365258135	385
0	1049	280	384
0	1052	280.187249163923	385
0	1053	280.187249163923	386
0	1055	280.386637582087	387
0	1056	280.386637582087	388
0	1058	281.067913533464	389
0	1059	281.067913533464	390
0	1060	282	389
0	1063	282.402043692223	390
0	1064	282.402043692223	391
0	1066	283.817052293747	392
0	1067	283.817052293747	393
0	1068	284	392
0	1071	284.996952766355	393
0	1072	284.996952766355	394
0	1074	285.557912690333	395
0	1075	285.557912690333	396
0	1076	286	395
0	1079	287.320756770696	396
0	1080	287.320756770696	397
0	1082	287.725959497096	398
0	1083	287.725959497096	399
0	1084	288	398
0	1087	289.834654124106	399
0	1088	289.834654124106	400
0	1089	290	399
0	1092	290.501745633318	400
0	1093	290.501745633318	401
0	1094	292	400
0	1097	292.193254673511	401
0	1098	292.193254673511	402
0	1100	293.107568989965	403
0	1101	293.107568989965	404
0	1103	293.727925534976	405
0	1104	293.727925534976	406
0	1105	294	405
0	1108	295.095064658749	406
0	1109	295.095064658749	407
0	1110	296	406
0	1113	296.627601755416	407
0	1114	296.627601755416	408
0	1116	297.280407692765	409
0	1117	297.280407692765	410
0	1118	298	409
0	1121	298.360905840014	410
0	1122	298.360905840014	411
0	1124	298.377430565499	412
0	1125	298.377430565499	413
0	1127	299.778189782851	414
0	1128	299.778189782851	415
0	1129	300	414
0	1132	300.562139366241	415
0	1133	300.562139366241	416
0	1134	302	415
0	1137	302.102074899523	416
0	1138	302.102074899523	417
0	1140	302.931450540118	418
0	1141	302.931450540118	419
0	1142	304	418
0	1145	304.285544622081	419
0	1146	304.285544622081	420
0	1148	305.527296675801	421
0	1149	305.527296675801	422
0	1150	306	421
0	1153	307.521156472427	422
0	1154	307.521156472427	423
0	1155	308	422
0	1158	308.433704634268	423
0	1159	308.433704634268	424
0	1161	308.780270572975	425
0	1162	308.780270572975	426
0	1164	309.749275541539	427
0	1165	309.749275541539	428
0	1166	310	427
0	1169	310.720971322886	428
0	1170	310.720971322886	429
0	1172	311.329707904235	430
0	1173	311.329707904235	431
0	1174	312	430
0	1177	312.864333080733	431
0	1178	312.864333080733	432
0	1179	314	431
0	1182	314.394808696466	432
0	1183	314.394808696466	433
0	1185	315.534597731259	434
0	1186	315.534597731259	435
0	1187	316	434
0	1190	316.581635053573	435
0	1191	316.581635053573	436
0	1193	317.022431234342	437
0	1194	317.022431234342	438
0	1196	317.914250473544	439
0	1197	317.914250473544	440
0	1198	318	439
0	1201	319.233070432178	440
0	1202	319.233070432178	441
0	1203	320	440
0	1206	320.154484081899	441
0	1207	320.154484081899	442
0	1209	320.554798800064	443
0	1210	320.554798800064	444
0	1211	322	443
0	1214	322.428535082072	444
0	1215	322.428535082072	445
0	1216	324	444
0	1219	324.566508358585	445
0	1220	324.566508358585	446
0	1221	326	445
0	1224	326.026931159447	446
0	1225	326.026931159447	447
0	1227	326.844598941938	448
0	1228	326.844598941938	449
0	1229	328	448
0	1232	328.191964459666	449
0	1233	328.191964459666	450
0	1235	328.955584580968	451
0	1236	328.955584580968	452
0	1237	330	451
0	1240	330.199843034983	452
0	1241	330.199843034983	453
0	1243	331.080285701937	454
0	1244	331.080285701937	455
0	1245	332	454
0	1248	332.157261625273	455
0	1249	332.157261625273	456
0	1251	333.044990549802	457
0	1252	333.044990549802	458
0	1253	334	457
0	1256	334.380729325993	458
0	1257	334.380729325993	459
0	1259	335.359945924091	460
0	1260	335.359945924091	461
0	1261	336	460
0	1264	337.362708880067	461
0	1265	337.362708880067	462
0	1266	338	461
0	1269	338.782313269128	462
0	1270	338.782313269128	463
0	1272	339.323597582867	464
0	1273	339.323597582867	465
0	1275	339.514227498234	466
0	1276	339.514227498234	467
0	1277	340	466
0	1280	340.615094370322	467
0	1281	340.615094370322	468
0	1283	341.052546024928	469
0	1284	341.052546024928	470
0	1286	341.815848715478	471
0	1287	341.815848715478	472
0	1288	342	471
0	1291	343.025517026059	472
0	1292	343.025517026059	473
0	1294	343.234902648971	474
0	1295	343.234902648971	475
0	1296	344	474
0	1299	344.044063379868	475
0	1300	344.044063379868	476
0	1302	345.120446285848	477
0	1303	345.120446285848	478
0	1304	346	477
0	1307	346.55649183867	478
0	1308	346.55649183867	479
0	1310	347.546134559608	480
0	1311	347.546134559608	481
0	1312	348	480
0	1315	348.888290191355	481
0	1316	348.888290191355	482
0	1318	349.968129179833	483
0	1319	349.968129179833	484
0	1320	350	483
0	1323	350.241979990917	484
0	1324	350.241979990917	485
0	1326	351.73904509421	486
0	1327	351.73904509421	487
0	1328	352	486
0	1331	353.179248559324	487
0	1332	353.179248559324	488
0	1333	354	487
0	1336	354.141783415368	488
0	1337	354.141783415368	489
0	1339	355.923529395519	490
0	1340	355.923529395519	491
0	1341	356	490
0	1344	357.631617558926	491
0	1345	357.631617558926	492
0	1346	358	491
0	1349	358.406581832654	492
0	1350	358.406581832654	493
0	1352	359.365371610638	494
0	1353	359.365371610638	495
0	1354	360	494
0	1357	360.178078396648	495
0	1358	360.178078396648	496
0	1360	361.044422902528	497
0	1361	361.044422902528	498
0	1363	361.580063582417	499
0	1364	361.580063582417	500
0	1365	362	499
0	1368	363.055440243801	500
0	1369	363.055440243801	501
0	1370	364	500
0	1373	364.874165863156	501
0	1374	364.874165863156	502
0	1375	366	501
0	1378	367.056683363613	502
0	1379	367.056683363613	503
0	1380	368	502
0	1383	368.121219017595	503
0	1384	368.121219017595	504
0	1386	369.086340421835	505
0	1387	369.086340421835	506
0	1389	369.29937404003	507
0	1390	369.29937404003	508
0	1392	369.871827220682	509
0	1393	369.871827220682	510
0	1394	370	509
0	1397	371.005279819201	510
0	1398	371.005279819201	511
0	1399	372	510
0	1402	372.911564738243	511
0	1403	372.911564738243	512
0	1405	373.710411416373	513
0	1406	373.710411416373	514
0	1407	374	513
0	1410	374.985311287054	514
0	1411	374.985311287054	515
0	1412	376	514
0	1415	376.460011824352	515
0	1416	376.460011824352	516
0	1418	377.709277417721	517
0	1419	377.709277417721	518
0	1420	378	517
0	1423	379.404684973586	518
0	1424	379.404684973586	519
0	1426	379.718292718806	520
0	1427	379.718292718806	521
0	1428	380	520
0	1431	380.155398067991	521
0	1432	380.155398067991	522
0	1434	380.882475759896	523
0	1435	380.882475759896	524
0	1437	381.730192506641	525
0	1438	381.730192506641	526
0	1439	382	525
0	1442	383.394563226781	526
0	1443	383.394563226781	527
0	1444	384	526
0	1447	384.226017546676	527
0	1448	384.226017546676	528
0	1450	384.734928320233	529
0	1451	384.734928320233	530
0	1453	385.654520422842	531
0	1454	385.654520422842	532
0	1455	386	531
0	1458	386.993264017282	532
0	1459	386.993264017282	533
0	1460	388	532
0	1463	388.006595578049	533
0	1464	388.006595578049	534
0	1466	389.549790896073	535
0	1467	389.549790896073	536
0	1468	390	535
0	1471	390.862446727441	536
0	1472	390.862446727441	537
0	1474	391.490533614087	538
0	1475	391.490533614087	539
0	1476	392	538
0	1479	392.609174145361	539
0	1480	392.609174145361	540
0	1482	392.819885920655	541
0	1483	392.819885920655	542
0	1484	394	541
0	1487	394.608293828354	542
0	1488	394.608293828354	543
0	1490	395.832695574437	544
0	1491	395.832695574437	545
0	1492	396	544
0	1495	396.792764279682	545
0	1496	396.792764279682	546
0	1498	397.859665508361	547
0	1499	397.859665508361	548
0	1500	398	547
0	1503	398.826763546527	548
0	1504	398.826763546527	549
0	1505	400	548
0	1508	400.031204888939	549
0	1509	400.031204888939	550
0	1511	401.337129505349	551
0	1512	401.337129505349	552
0	1514	401.89556141407	553
0	1515	401.89556141407	554
0	1516	402	553
0	1519	402.933426150648	554
0	1520	402.933426150648	555
0	1521	404	554
0	1524	405.712975559603	555
0	1525	405.712975559603	556
0	1526	406	555
0	1529	406.74724906212	556
0	1530	406.74724906212	557
0	1531	408	556
0	1534	408.226782512783	557
0	1535	408.226782512783	558
0	1537	409.691639537904	559
0	1538	409.691639537904	560
0	1539	410	559
0	1542	411.663625851469	560
0	1543	411.663625851469	561
0	1544	412	560
0	1547	412.11543102201	561
0	1548	412.11543102201	562
0	1550	412.67409099921	563
0	1551	412.67409099921	564
0	1553	413.172968844027	565
0	1554	413.172968844027	566
0	1555	414	565
0	1558	414.196380722294	566
0	1559	414.196380722294	567
0	1561	415.08563410946	568
0	1562	415.08563410946	569
0	1563	416	568
0	1566	416.380728733985	569
0	1567	416.380728733985	570
0	1569	417.780582271009	571
0	1570	417.780582271009	572
0	1571	418	571
0	1574	418.973567893596	572
0	1575	418.973567893596	573
0	1576	420	572
0	1579	420.786750067732	573
0	1580	420.786750067732	574
0	1581	422	573
0	1584	422.844591706801	574
0	1585	422.844591706801	575
0	1587	423.367860105593	576
0	1588	423.367860105593	577
0	1589	424	576
0	1592	424.813518890697	577
0	1593	424.813518890697	578
0	1595	425.061851979865	579
0	1596	425.061851979865	580
0	1597	426	579
0	1600	426.416747126574	580
0	1601	426.416747126574	581
0	1603	427.039104095842	582
0	1604	427.039104095842	583
0	1606	427.377232139234	584
0	1607	427.377232139234	585
0	1608	428	584
0	1611	429.098199188561	585
0	1612	429.098199188561	586
0	1614	429.55787097744	587
0	1615	429.55787097744	588
0	1616	430	587
0	1619	430.85821773882	588
0	1620	430.85821773882	589
0	1622	431.994167890088	590
0	1623	431.994167890088	591
0	1624	432	590
0	1627	433.052594214491	591
0	1628	433.052594214491	592
0	1629	434	591
0	1632	435.710341412266	592
0	1633	435.710341412266	593
0	1634	436	592
0	1637	436.978852561387	593
0	1638	436.978852561387	594
0	1639	438	593
0	1642	438.642477816266	594
0	1643	438.642477816266	595
0	1645	438.985712009635	596
0	1646	438.985712009635	597
0	1647	440	596
0	1650	441.089492917857	597
0	1651	441.089492917857	598
0	1652	442	597
0	1655	442.185104067514	598
0	1656	442.185104067514	599
0	1658	442.910043932461	600
0	1659	442.910043932461	601
0	1660	444	600
0	1663	445.035795760185	601
0	1664	445.035795760185	602
0	1665	446	601
0	1668	446.431744726754	602
0	1669	446.431744726754	603
0	1671	447.139140498255	604
0	1672	447.139140498255	605
0	1674	447.420895858584	606
0	1675	447.420895858584	607
0	1676	448	606
0	1679	448.374939531486	607
0	1680	448.374939531486	608
0	1682	449.003259011845	609
0	1683	449.003259011845	610
0	1685	449.344115658028	611
0	1686	449.344115658028	612
0	1688	449.841268188208	613
0	1689	449.841268188208	614
0	1690	450	613
0	1693	450.417847317998	614
0	1694	450.417847317998	615
0	1695	452	614
0	1698	452.081739144944	615
0	1699	452.081739144944	616
0	1701	452.354537439326	617
0	1702	452.354537439326	618
0	1704	453.041346390038	619
0	1705	453.041346390038	620
0	1706	454	619
0	1709	454.47641738155	620
0	1710	454.47641738155	621
0	1712	455.504411155413	622
0	1713	455.504411155413	623
0	1715	455.978561124128	624
0	1716	455.978561124128	625
0	1717	456	624
0	1720	456.126381049259	625
0	1721	456.126381049259	626
0	1723	456.769248427079	627
0	1724	456.769248427079	628
0	1726	456.95151564039	629
0	1727	456.95151564039	630
0	1728	458	629
0	1731	458.378898905713	630
0	1732	458.378898905713	631
0	1734	459.622695650975	632
0	1735	459.622695650975	633
0	1736	460	632
0	1739	460.075234386248	633
0	1740	460.075234386248	634
0	1742	460.757833041076	635
0	1743	460.757833041076	636
0	1744	462	635
0	1747	462.031309878781	636
0	1748	462.031309878781	637
0	1750	462.962272141112	638
0	1751	462.962272141112	639
0	1753	463.414139256583	640
0	1754	463.414139256583	641
0	1755	464	640
0	1757	466	639
0	1760	466.141934713807	640
0	1761	466.141934713807	641
0	1763	466.24204051157	642
0	1764	466.24204051157	643
0	1766	467.55998295221	644
0	1767	467.55998295221	645
0	1768	468	644
0	1771	469.207494804964	645
0	1772	469.207494804964	646
0	1774	469.901655942733	647
0	1775	469.901655942733	648
0	1776	470	647
0	1779	470.8033786597	648
0	1780	470.8033786597	649
0	1782	471.661891670555	650
0	1783	471.661891670555	651
0	1785	471.782991017296	652
0	1786	471.782991017296	653
0	1787	472	652
0	1790	472.964251681089	653
0	1791	472.964251681089	654
0	1792	474	653
0	1795	474.335510078953	654
0	1796	474.335510078953	655
0	1798	475.011360575284	656
0	1799	475.011360575284	657
0	1800	476	656
0	1803	476.025647826891	657
0	1804	476.025647826891	658
0	1805	478	657
0	1808	478.144000907143	658
0	1809	478.144000907143	659
0	1811	479.072577147012	660
0	1812	479.072577147012	661
0	1814	479.268287737898	662
0	1815	479.268287737898	663
0	1816	480	662
0	1819	480.078127386469	663
0	1820	480.078127386469	664
0	1822	480.287559794027	665
0	1823	480.287559794027	666
0	1825	481.603065122071	667
0	1826	481.603065122071	668
0	1827	482	667
0	1830	482.900775095626	668
0	1831	482.900775095626	669
0	1833	483.078175003336	670
0	1834	483.078175003336	671
0	1836	483.168144715921	672
0	1837	483.168144715921	673
0	1838	484	672
0	1841	484.159078883388	673
0	1842	484.159078883388	674
0	1844	484.986181417461	675
0	1845	484.986181417461	676
0	1847	485.316588803495	677
0	1848	485.316588803495	678
0	1849	486	677
0	1852	487.088159801493	678
0	1853	487.088159801493	679
0	1854	488	678
0	1857	488.684421303096	679
0	1858	488.684421303096	680
0	1860	489.302927776533	681
0	1861	489.302927776533	682
0	1862	490	681
0	1865	490.465215937914	682
0	1866	490.465215937914	683
0	1868	490.85380906176	684
0	1869	490.85380906176	685
0	1871	491.659755638728	686
0	1872	491.659755638728	687
0	1873	492	686