version 3
run k_MM1_lbqf-12-20221127-16:03:35-25264
attr configname k_MM1_lbqf
attr datetime 20221127-16:03:35
attr datetimef 20221127-160335
attr experiment k_MM1_lbqf
attr inifile omnetpp.ini
attr iterationvars "$time=1.5, $num=5, $0=53542, $1=75335, $2=34542"
attr iterationvarsd time=1.5/num=5/53542/75335/34542
attr iterationvarsf time=1.5,num=5,53542,75335,34542-
attr measurement "$time=1.5, $num=5, $0=53542, $1=75335, $2=34542"
attr network lbqfkMM1
attr processid 25264
attr repetition 0
attr replication #0
attr resultdir results
attr runnumber 12
attr seedset 12
itervar num 5
itervar time 1.5
config description "MM1 module k-times lbqf"
config network lbqfkMM1
config **.interArrivalTime "truncnormal(uniform(0.5s, 1.5s), uniform(0.25s, 0.75s))"
config **.serviceTime 1.5s
config **.c 5
config **.capacity 10000
config record-eventlog false
config **.scalar-recording true
config **.vector-recording true
config repeat 4
config seed-1-mt 53542
config seed-2-mt 75335
config seed-3-mt 34542
config output-vector-file k_MM1_lbqf-5-1.5-results/0.vec
config output-scalar-file k_MM1_lbqf-5-1.5-results/0.sca

vector 0 lbqfkMM1.mm1[0] queueLength:vector ETV
attr interpolationmode none
attr recordingmode vector
attr title "queue length"
vector 1 lbqfkMM1.mm1[1] queueLength:vector ETV
attr interpolationmode none
attr recordingmode vector
attr title "queue length"
vector 2 lbqfkMM1.mm1[0] util:vector ETV
attr interpolationmode none
attr recordingmode vector
attr title resources
vector 3 lbqfkMM1.mm1[1] util:vector ETV
attr interpolationmode none
attr recordingmode vector
attr title resources
vector 4 lbqfkMM1.mm1[2] queueLength:vector ETV
attr interpolationmode none
attr recordingmode vector
attr title "queue length"
vector 5 lbqfkMM1.mm1[2] util:vector ETV
attr interpolationmode none
attr recordingmode vector
attr title resources
vector 6 lbqfkMM1.mm1[3] queueLength:vector ETV
attr interpolationmode none
attr recordingmode vector
attr title "queue length"
vector 7 lbqfkMM1.mm1[4] queueLength:vector ETV
attr interpolationmode none
attr recordingmode vector
attr title "queue length"
vector 8 lbqfkMM1.mm1[3] util:vector ETV
attr interpolationmode none
attr recordingmode vector
attr title resources
vector 9 lbqfkMM1.mm1[4] util:vector ETV
attr interpolationmode none
attr recordingmode vector
attr title resources
0	5	10	1
0	11	11.5	0
0	17	11.901228761643	1
0	18	11.901228761643	2
0	22	13	1
0	33	14.5	0
0	39	14.837774375716	1
0	40	14.837774375716	2
0	44	16	1
0	55	17.5	0
0	61	17.6446798798	1
0	62	17.6446798798	2
0	66	19	1
0	77	20.5	0
0	83	20.66068169765	1
0	84	20.66068169765	2
0	93	22	1
0	107	23.5	0
0	113	23.539550864873	1
0	114	23.539550864873	2
0	126	25	1
0	140	26.5	0
0	146	26.847421382656	1
0	147	26.847421382656	2
0	154	28	1
0	165	29.5	0
0	171	29.728448261848	1
0	172	29.728448261848	2
0	176	31	1
0	187	32.5	0
0	193	33.572210521438	1
0	194	33.572210521438	2
0	198	34	1
0	209	35.5	0
0	215	35.515221611907	1
0	216	35.515221611907	2
0	225	37	1
0	236	38.5	0
0	252	40.102583791843	1
0	269	41.602583791843	0
0	275	41.864872127717	1
0	276	41.864872127717	2
0	293	43.102583791843	1
0	315	44.602583791843	0
0	321	44.645619332556	1
0	322	44.645619332556	2
0	345	46.102583791843	1
0	365	47.602583791843	0
0	374	48.097302342518	1
0	375	48.097302342518	2
0	382	49.102583791843	1
0	401	50.602583791843	0
0	410	51.785511885955	1
0	411	51.785511885955	2
0	415	52.102583791843	1
0	429	53.602583791843	0
0	435	54.018327769697	1
0	436	54.018327769697	2
0	445	55.102583791843	1
0	464	56.602583791843	0
0	470	56.681648522483	1
0	471	56.681648522483	2
0	478	58.102583791843	1
0	492	59.602583791843	0
0	498	60.384918565335	1
0	499	60.384918565335	2
0	511	61.102583791843	1
0	525	62.602583791843	0
0	531	63.451420594295	1
0	532	63.451420594295	2
0	539	64.102583791843	1
0	555	65.602583791843	0
0	561	65.635662448808	1
0	562	65.635662448808	2
0	574	67.102583791843	1
0	591	68.602583791843	0
0	597	69.08362653874	1
0	598	69.08362653874	2
0	610	70.102583791843	1
0	621	71.602583791843	0
0	627	71.902152769114	1
0	628	71.902152769114	2
0	635	73.102583791843	1
0	649	74.602583791843	0
0	655	74.679942209096	1
0	656	74.679942209096	2
0	670	76.102583791843	1
0	684	77.602583791843	0
0	690	78.091818487144	1
0	691	78.091818487144	2
0	716	79.102583791843	1
0	733	80.602583791843	0
0	739	81.500175983502	1
0	740	81.500175983502	2
0	750	82.102583791843	1
0	772	83.602583791843	0
0	778	84.325033309576	1
0	779	84.325033309576	2
0	789	85.102583791843	1
0	803	86.602583791843	0
0	809	87.342391435887	1
0	810	87.342391435887	2
0	814	88.102583791843	1
0	825	89.602583791843	0
0	831	90.300227098039	1
0	832	90.300227098039	2
0	841	91.102583791843	1
0	855	92.602583791843	0
0	861	93.187268636275	1
0	862	93.187268636275	2
0	869	94.102583791843	1
0	880	95.602583791843	0
0	886	96.026411686478	1
0	887	96.026411686478	2
0	891	97.102583791843	1
0	907	98.602583791843	0
0	913	98.981977025943	1
0	914	98.981977025943	2
0	921	100.102583791843	1
0	935	101.602583791843	0
0	941	101.666498721774	1
0	942	101.666498721774	2
0	946	103.102583791843	1
0	957	104.602583791843	0
0	963	104.608063674592	1
0	964	104.608063674592	2
0	973	106.102583791843	1
0	987	107.602583791843	0
0	993	108.385652309099	1
0	994	108.385652309099	2
0	1001	109.102583791843	1
0	1012	110.602583791843	0
0	1018	111.420119363126	1
0	1019	111.420119363126	2
0	1023	112.102583791843	1
0	1039	113.602583791843	0
0	1048	114.766811419497	1
0	1049	114.766811419497	2
0	1053	115.102583791843	1
0	1077	116.602583791843	0
0	1083	116.955542195612	1
0	1084	116.955542195612	2
0	1094	118.102583791843	1
0	1116	119.602583791843	0
0	1122	120.194080801539	1
0	1123	120.194080801539	2
0	1130	121.102583791843	1
0	1144	122.602583791843	0
0	1150	122.73388086646	1
0	1151	122.73388086646	2
0	1165	124.102583791843	1
0	1184	125.602583791843	0
0	1193	126.747492058822	1
0	1194	126.747492058822	2
0	1201	127.102583791843	1
0	1218	128.602583791843	0
0	1224	129.022760859804	1
0	1225	129.022760859804	2
0	1232	130.102583791843	1
0	1243	131.602583791843	0
0	1249	132.041384692391	1
0	1250	132.041384692391	2
0	1264	133.102583791843	1
0	1286	134.602583791843	0
0	1292	135.194726969121	1
0	1293	135.194726969121	2
0	1303	136.102583791843	1
0	1322	137.602583791843	0
0	1328	137.956679573257	1
0	1329	137.956679573257	2
0	1341	139.102583791843	1
0	1368	140.602583791843	0
0	1374	141.240113320029	1
0	1375	141.240113320029	2
0	1385	142.102583791843	1
0	1407	143.602583791843	0
0	1413	144.305502286899	1
0	1414	144.305502286899	2
0	1424	145.102583791843	1
0	1438	146.602583791843	0
0	1444	147.086040086763	1
0	1445	147.086040086763	2
0	1452	148.102583791843	1
0	1463	149.602583791843	0
0	1469	149.993793947277	1
0	1470	149.993793947277	2
0	1474	151.102583791843	1
0	1495	152.602583791843	0
0	1504	153.159197189374	1
0	1505	153.159197189374	2
0	1527	154.102583791843	1
0	1547	155.602583791843	0
0	1553	155.607560578588	1
0	1554	155.607560578588	2
0	1567	157.102583791843	1
0	1589	158.602583791843	0
0	1595	158.688600077398	1
0	1596	158.688600077398	2
0	1608	160.102583791843	1
0	1630	161.602583791843	0
0	1639	162.443932781049	1
0	1640	162.443932781049	2
0	1647	163.102583791843	1
0	1666	164.602583791843	0
0	1672	165.423840068719	1
0	1673	165.423840068719	2
0	1680	166.102583791843	1
0	1699	167.602583791843	0
0	1711	168.993263545023	1
0	1712	168.993263545023	2
0	1713	169.102583791843	1
0	1732	170.602583791843	0
0	1738	171.435492124669	1
0	1739	171.435492124669	2
0	1746	172.102583791843	1
0	1765	173.602583791843	0
0	1771	174.053745738959	1
0	1772	174.053745738959	2
0	1784	175.102583791843	1
0	1798	176.602583791843	0
0	1804	176.903025955189	1
0	1805	176.903025955189	2
0	1817	178.102583791843	1
0	1834	179.602583791843	0
0	1840	179.648906710344	1
0	1841	179.648906710344	2
0	1853	181.102583791843	1
0	1872	182.602583791843	0
0	1878	183.031253449289	1
0	1879	183.031253449289	2
0	1886	184.102583791843	1
0	1900	185.602583791843	0
0	1906	185.91003757336	1
0	1907	185.91003757336	2
0	1919	187.102583791843	1
0	1938	188.602583791843	0
0	1944	188.988807566576	1
0	1945	188.988807566576	2
0	1957	190.102583791843	1
0	1974	191.602583791843	0
0	1993	193.319960845468	1
0	2002	194.819960845468	0
0	2008	195.620482253923	1
0	2009	195.620482253923	2
0	2018	196.319960845468	1
0	2042	197.819960845468	0
0	2057	199.193506166877	1
0	2058	199.193506166877	2
0	2059	199.319960845468	1
0	2076	200.819960845468	0
0	2082	201.47089804741	1
0	2083	201.47089804741	2
0	2090	202.319960845468	1
0	2106	203.819960845468	0
0	2112	204.350137524515	1
0	2113	204.350137524515	2
0	2120	205.319960845468	1
0	2139	206.819960845468	0
0	2151	208.318925466398	1
0	2152	208.318925466398	2
0	2153	208.319960845468	1
0	2162	209.819960845468	0
0	2168	210.352528109055	1
0	2169	210.352528109055	2
0	2175	211.319960845468	1
0	2186	212.819960845468	0
0	2192	213.573046990833	1
0	2193	213.573046990833	2
0	2207	214.319960845468	1
0	2224	215.819960845468	0
0	2233	216.421898387093	1
0	2234	216.421898387093	2
0	2249	217.319960845468	1
0	2258	218.819960845468	0
0	2264	219.1608159	1
0	2265	219.1608159	2
0	2274	220.319960845468	1
0	2285	221.819960845468	0
0	2291	222.540645340799	1
0	2292	222.540645340799	2
0	2299	223.319960845468	1
0	2320	224.819960845468	0
0	2332	225.762745568371	1
0	2333	225.762745568371	2
0	2342	226.319960845468	1
0	2359	227.819960845468	0
0	2375	229.447890272418	1
0	2387	230.947890272418	0
0	2400	232.771516464566	1
0	2404	234.271516464566	0
0	2410	234.35866670842	1
0	2411	234.35866670842	2
0	2417	235.771516464566	1
0	2433	237.271516464566	0
0	2445	238.364843050305	1
0	2446	238.364843050305	2
0	2447	238.771516464566	1
0	2461	240.271516464566	0
0	2467	240.623699510222	1
0	2468	240.623699510222	2
0	2472	241.771516464566	1
0	2488	243.271516464566	0
0	2500	243.98758106818	1
0	2501	243.98758106818	2
0	2502	244.771516464566	1
0	2521	246.271516464566	0
0	2533	247.363576175355	1
0	2534	247.363576175355	2
0	2540	247.771516464566	1
0	2564	249.271516464566	0
0	2570	249.360469894693	1
0	2571	249.360469894693	2
0	2589	250.771516464566	1
0	2619	252.271516464566	0
0	2628	252.697054258524	1
0	2629	252.697054258524	2
0	2644	253.771516464566	1
0	2669	255.271516464566	0
0	2675	255.553561762252	1
0	2676	255.553561762252	2
0	2691	256.771516464566	1
0	2713	258.271516464566	0
0	2725	258.959072736631	1
0	2726	258.959072736631	2
0	2735	259.771516464566	1
0	2752	261.271516464566	0
0	2764	262.037189173433	1
0	2765	262.037189173433	2
0	2766	262.771516464566	1
0	2785	264.271516464566	0
0	2797	265.50873440678	1
0	2798	265.50873440678	2
0	2799	265.771516464566	1
0	2818	267.271516464566	0
0	2830	268.57057802884	1
0	2831	268.57057802884	2
0	2832	268.771516464566	1
0	2846	270.271516464566	0
0	2855	271.114572366538	1
0	2856	271.114572366538	2
0	2862	271.771516464566	1
0	2881	273.271516464566	0
0	2893	274.134128834387	1
0	2894	274.134128834387	2
0	2903	274.771516464566	1
0	2920	276.271516464566	0
0	2929	276.890902681863	1
0	2930	276.890902681863	2
0	2934	277.771516464566	1
0	2955	279.271516464566	0
0	2964	280.243469795925	1
0	2965	280.243469795925	2
0	2972	280.771516464566	1
0	2989	282.271516464566	0
0	2998	283.0003649986	1
0	2999	283.0003649986	2
0	3000	283.771516464566	1
0	3016	285.271516464566	0
0	3025	286.560200768598	1
0	3026	286.560200768598	2
0	3030	286.771516464566	1
0	3044	288.271516464566	0
0	3053	288.990621462226	1
0	3054	288.990621462226	2
0	3055	289.771516464566	1
0	3066	291.271516464566	0
0	3078	291.860419764927	1
0	3079	291.860419764927	2
0	3080	292.771516464566	1
0	3091	294.271516464566	0
0	3097	295.07772097456	1
0	3098	295.07772097456	2
0	3102	295.771516464566	1
0	3118	297.271516464566	0
0	3124	297.92460540042	1
0	3125	297.92460540042	2
0	3132	298.771516464566	1
0	3161	300.271516464566	0
0	3176	301.373977047296	1
0	3177	301.373977047296	2
0	3181	301.771516464566	1
0	3206	303.271516464566	0
0	3222	304.847243819258	1
0	3229	306.347243819258	0
0	3235	306.386402738009	1
0	3236	306.386402738009	2
0	3242	307.847243819258	1
0	3253	309.347243819258	0
0	3265	310.575767598522	1
0	3266	310.575767598522	2
0	3267	310.847243819258	1
0	3278	312.347243819258	0
0	3284	312.476306751119	1
0	3285	312.476306751119	2
0	3299	313.847243819258	1
0	3308	315.347243819258	0
0	3317	315.695829692424	1
0	3318	315.695829692424	2
0	3327	316.847243819258	1
0	3346	318.347243819258	0
0	3358	319.490956601984	1
0	3359	319.490956601984	2
0	3360	319.847243819258	1
0	3374	321.347243819258	0
0	3383	322.293390634787	1
0	3384	322.293390634787	2
0	3388	322.847243819258	1
0	3409	324.347243819258	0
0	3424	325.484005284748	1
0	3425	325.484005284748	2
0	3426	325.847243819258	1
0	3448	327.347243819258	0
0	3454	327.564874699101	1
0	3455	327.564874699101	2
0	3462	328.847243819258	1
0	3481	330.347243819258	0
0	3493	331.475159153894	1
0	3494	331.475159153894	2
0	3495	331.847243819258	1
0	3509	333.347243819258	0
0	3515	333.551588576772	1
0	3516	333.551588576772	2
0	3525	334.847243819258	1
0	3539	336.347243819258	0
0	3545	336.841842748456	1
0	3546	336.841842748456	2
0	3558	337.847243819258	1
0	3567	339.347243819258	0
0	3573	340.041558891475	1
0	3574	340.041558891475	2
0	3578	340.847243819258	1
0	3586	342.347243819258	0
0	3595	343.178786434997	1
0	3596	343.178786434997	2
0	3597	343.847243819258	1
0	3608	345.347243819258	0
0	3614	345.801653018711	1
0	3615	345.801653018711	2
0	3619	346.847243819258	1
0	3630	348.347243819258	0
0	3643	350.145756005874	1
0	3652	351.645756005874	0
0	3658	351.904605318797	1
0	3659	351.904605318797	2
0	3673	353.145756005874	1
0	3697	354.645756005874	0
0	3703	354.760529605428	1
0	3704	354.760529605428	2
0	3727	356.145756005874	1
0	3752	357.645756005874	0
0	3758	357.900330492581	1
0	3759	357.900330492581	2
0	3772	359.145756005874	1
0	3792	360.645756005874	0
0	3798	361.162761745807	1
0	3799	361.162761745807	2
0	3816	362.145756005874	1
0	3830	363.645756005874	0
0	3836	363.721439354579	1
0	3837	363.721439354579	2
0	3847	365.145756005874	1
0	3866	366.645756005874	0
0	3872	367.342415307952	1
0	3873	367.342415307952	2
0	3880	368.145756005874	1
0	3899	369.645756005874	0
0	3905	370.176318003805	1
0	3906	370.176318003805	2
0	3918	371.145756005874	1
0	3932	372.645756005874	0
0	3938	373.399249383738	1
0	3939	373.399249383738	2
0	3946	374.145756005874	1
0	3965	375.645756005874	0
0	3971	375.776015565005	1
0	3972	375.776015565005	2
0	3984	377.145756005874	1
0	4001	378.645756005874	0
0	4007	379.17210350216	1
0	4008	379.17210350216	2
0	4020	380.145756005874	1
0	4031	381.645756005874	0
0	4040	382.074373440175	1
0	4041	382.074373440175	2
0	4045	383.145756005874	1
0	4069	384.645756005874	0
0	4078	385.501023871252	1
0	4079	385.501023871252	2
0	4091	386.145756005874	1
0	4113	387.645756005874	0
0	4119	387.858772530884	1
0	4120	387.858772530884	2
0	4130	389.145756005874	1
0	4147	390.645756005874	0
0	4153	391.109495955021	1
0	4154	391.109495955021	2
0	4158	392.145756005874	1
0	4169	393.645756005874	0
0	4175	394.561354799939	1
0	4176	394.561354799939	2
0	4180	395.145756005874	1
0	4191	396.645756005874	0
0	4197	396.696253708842	1
0	4198	396.696253708842	2
0	4207	398.145756005874	1
0	4218	399.645756005874	0
0	4224	399.671864366704	1
0	4225	399.671864366704	2
0	4232	401.145756005874	1
0	4251	402.645756005874	0
0	4257	403.317310133453	1
0	4258	403.317310133453	2
0	4265	404.145756005874	1
0	4289	405.645756005874	0
0	4308	407.175529052471	1
0	4323	408.675529052471	0
0	4332	409.932261998431	1
0	4333	409.932261998431	2
0	4334	410.175529052471	1
0	4340	411.675529052471	0
0	4346	412.128351437018	1
0	4347	412.128351437018	2
0	4353	413.175529052471	1
0	4359	414.675529052471	0
0	4365	415.028076091219	1
0	4366	415.028076091219	2
0	4375	416.175529052471	1
0	4386	417.675529052471	0
0	4392	417.716070808917	1
0	4393	417.716070808917	2
0	4405	419.175529052471	1
0	4419	420.675529052471	0
0	4425	421.144180846201	1
0	4426	421.144180846201	2
0	4438	422.175529052471	1
0	4452	423.675529052471	0
0	4458	424.528524592066	1
0	4459	424.528524592066	2
0	4466	425.175529052471	1
0	4482	426.675529052471	0
0	4488	426.828878539517	1
0	4489	426.828878539517	2
0	4496	428.175529052471	1
0	4515	429.675529052471	0
0	4521	430.534789371464	1
0	4522	430.534789371464	2
0	4529	431.175529052471	1
0	4548	432.675529052471	0
0	4554	432.687121008554	1
0	4555	432.687121008554	2
0	4567	434.175529052471	1
0	4576	435.675529052471	0
0	4582	435.685907661286	1
0	4583	435.685907661286	2
0	4592	437.175529052471	1
0	4603	438.675529052471	0
0	4609	439.290947618505	1
0	4610	439.290947618505	2
0	4622	440.175529052471	1
0	4636	441.675529052471	0
0	4652	443.220899353268	1
0	4664	444.720899353268	0
0	4673	446.054114194592	1
0	4674	446.054114194592	2
0	4675	446.220899353268	1
0	4691	447.720899353268	0
0	4697	448.473823646412	1
0	4698	448.473823646412	2
0	4705	449.220899353268	1
0	4719	450.720899353268	0
0	4725	451.175772288504	1
0	4726	451.175772288504	2
0	4730	452.220899353268	1
0	4751	453.720899353268	0
0	4760	454.525223894927	1
0	4761	454.525223894927	2
0	4768	455.220899353268	1
0	4785	456.720899353268	0
0	4791	457.459152002033	1
0	4792	457.459152002033	2
0	4796	458.220899353268	1
0	4817	459.720899353268	0
0	4826	460.728862441549	1
0	4827	460.728862441549	2
0	4834	461.220899353268	1
0	4851	462.720899353268	0
0	4857	462.883801216073	1
0	4858	462.883801216073	2
0	4867	464.220899353268	1
0	4878	465.720899353268	0
0	4884	466.491074676678	1
0	4885	466.491074676678	2
0	4892	467.220899353268	1
0	4906	468.720899353268	0
0	4919	470.282056402874	1
0	4923	471.782056402874	0
0	4929	472.084616948912	1
0	4930	472.084616948912	2
0	4931	473.282056402874	1
0	4944	474.782056402874	0
0	4953	476.223860575638	1
0	4954	476.223860575638	2
0	4958	476.282056402874	1
0	4972	477.782056402874	0
0	4978	478.65689403563	1
0	4979	478.65689403563	2
0	4983	479.282056402874	1
0	4999	480.782056402874	0
0	5005	481.729783447212	1
0	5006	481.729783447212	2
0	5013	482.282056402874	1
0	5027	483.782056402874	0
0	5033	484.100758614067	1
0	5034	484.100758614067	2
0	5048	485.282056402874	1
0	5065	486.782056402874	0
0	5074	487.396897669872	1
0	5075	487.396897669872	2
0	5087	488.282056402874	1
0	5101	489.782056402874	0
0	5107	489.832532741901	1
0	5108	489.832532741901	2
0	5120	491.282056402874	1
0	5144	492.782056402874	0
0	5163	494.444128997025	1
0	5178	495.944128997025	0
0	5187	497.210859397995	1
0	5188	497.210859397995	2
0	5192	497.444128997025	1
0	5198	498.944128997025	0
0	5204	499.087604936545	1
0	5205	499.087604936545	2
0	5206	500.444128997025	1
0	5214	501.944128997025	0
0	5223	502.772453162484	1
0	5224	502.772453162484	2
0	5225	503.444128997025	1
0	5241	504.944128997025	0
0	5250	506.262140950863	1
0	5251	506.262140950863	2
0	5255	506.444128997025	1
0	5264	507.944128997025	0
0	5270	508.522469043979	1
0	5271	508.522469043979	2
0	5272	509.444128997025	1
0	5280	510.944128997025	0
0	5289	511.08051252681	1
0	5290	511.08051252681	2
0	5296	512.444128997025	1
0	5317	513.944128997025	0
0	5329	514.509570608917	1
0	5330	514.509570608917	2
0	5337	515.444128997025	1
0	5362	516.944128997025	0
0	5381	519.248400835741	1
0	5390	520.748400835741	0
0	5399	521.971578284244	1
0	5400	521.971578284244	2
0	5401	522.248400835741	1
0	5412	523.748400835741	0
0	5418	523.887952660549	1
0	5419	523.887952660549	2
0	5423	525.248400835741	1
0	5434	526.748400835741	0
0	5440	527.257004478354	1
0	5441	527.257004478354	2
0	5445	528.248400835741	1
0	5456	529.748400835741	0
0	5462	529.801810702248	1
0	5463	529.801810702248	2
0	5477	531.248400835741	1
0	5499	532.748400835741	0
0	5505	532.898807760163	1
0	5506	532.898807760163	2
0	5516	534.248400835741	1
0	5535	535.748400835741	0
0	5544	536.264170853456	1
0	5545	536.264170853456	2
0	5554	537.248400835741	1
0	5573	538.748400835741	0
0	5585	539.802228613218	1
0	5586	539.802228613218	2
0	5590	540.248400835741	1
0	5612	541.748400835741	0
0	5618	542.024350268068	1
0	5619	542.024350268068	2
0	5626	543.248400835741	1
0	5645	544.748400835741	0
0	5654	545.472849620762	1
0	5655	545.472849620762	2
0	5664	546.248400835741	1
0	5683	547.748400835741	0
0	5702	549.407594431846	1
0	5717	550.907594431846	0
0	5723	551.075328786866	1
0	5724	551.075328786866	2
0	5736	552.407594431846	1
0	5747	553.907594431846	0
0	5759	555.17602148169	1
0	5760	555.17602148169	2
0	5761	555.407594431846	1
0	5775	556.907594431846	0
0	5781	557.249636821721	1
0	5782	557.249636821721	2
0	5786	558.407594431846	1
0	5802	559.907594431846	0
0	5808	560.329798695371	1
0	5809	560.329798695371	2
0	5816	561.407594431846	1
0	5830	562.907594431846	0
0	5836	563.313815388775	1
0	5837	563.313815388775	2
0	5841	564.407594431846	1
0	5857	565.907594431846	0
0	5863	566.394623322561	1
0	5864	566.394623322561	2
0	5871	567.407594431846	1
0	5885	568.907594431846	0
0	5891	569.184788749994	1
0	5892	569.184788749994	2
0	5896	570.407594431846	1
0	5907	571.907594431846	0
0	5913	572.004447488026	1
0	5914	572.004447488026	2
0	5918	573.407594431846	1
0	5934	574.907594431846	0
0	5940	575.022878230698	1
0	5941	575.022878230698	2
0	5958	576.407594431846	1
0	5977	577.907594431846	0
0	5986	578.286471652705	1
0	5987	578.286471652705	2
0	5997	579.407594431846	1
0	6022	580.907594431846	0
0	6028	581.853478571615	1
0	6029	581.853478571615	2
0	6036	582.407594431846	1
0	6050	583.907594431846	0
0	6056	584.566008932396	1
0	6057	584.566008932396	2
0	6066	585.407594431846	1
0	6077	586.907594431846	0
0	6089	588.343134563524	1
0	6090	588.343134563524	2
0	6091	588.407594431846	1
0	6100	589.907594431846	0
0	6106	590.419295499552	1
0	6107	590.419295499552	2
0	6108	591.407594431846	1
0	6116	592.907594431846	0
0	6122	593.01011288363	1
0	6123	593.01011288363	2
0	6132	594.407594431846	1
0	6143	595.907594431846	0
0	6152	596.737131878862	1
0	6153	596.737131878862	2
0	6157	597.407594431846	1
0	6171	598.907594431846	0
0	6180	600.134707840371	1
0	6181	600.134707840371	2
0	6182	600.407594431846	1
0	6198	601.907594431846	0
0	6204	602.245259351095	1
0	6205	602.245259351095	2
0	6212	603.407594431846	1
0	6226	604.907594431846	0
0	6232	605.246051874482	1
0	6233	605.246051874482	2
0	6237	606.407594431846	1
0	6253	607.907594431846	0
0	6265	609.189794863318	1
0	6266	609.189794863318	2
0	6267	609.407594431846	1
0	6281	610.907594431846	0
0	6287	611.606516430768	1
0	6288	611.606516430768	2
0	6297	612.407594431846	1
0	6308	613.907594431846	0
0	6314	614.246290190338	1
0	6315	614.246290190338	2
0	6327	615.407594431846	1
0	6341	616.907594431846	0
0	6357	618.447118229067	1
0	6369	619.947118229067	0
0	6378	621.11902714461	1
0	6379	621.11902714461	2
0	6380	621.447118229067	1
0	6401	622.947118229067	0
0	6407	622.948889511193	1
0	6408	622.948889511193	2
0	6418	624.447118229067	1
0	6450	625.947118229067	0
0	6456	626.737866737041	1
0	6457	626.737866737041	2
0	6470	627.447118229067	1
0	6490	628.947118229067	0
0	6496	629.749609240272	1
0	6497	629.749609240272	2
0	6501	630.447118229067	1
0	6517	631.947118229067	0
0	6523	632.791702751658	1
0	6524	632.791702751658	2
0	6536	633.447118229067	1
0	6550	634.947118229067	0
0	6556	635.341090041707	1
0	6557	635.341090041707	2
0	6564	636.447118229067	1
0	6578	637.947118229067	0
0	6584	638.224392332642	1
0	6585	638.224392332642	2
0	6599	639.447118229067	1
0	6616	640.947118229067	0
0	6622	641.452402361259	1
0	6623	641.452402361259	2
0	6638	642.447118229067	1
0	6657	643.947118229067	0
0	6663	644.487212888732	1
0	6664	644.487212888732	2
0	6679	645.447118229067	1
0	6701	646.947118229067	0
0	6707	646.987841764739	1
0	6708	646.987841764739	2
0	6723	648.447118229067	1
0	6740	649.947118229067	0
0	6746	650.931685149976	1
0	6747	650.931685149976	2
0	6759	651.447118229067	1
0	6773	652.947118229067	0
0	6779	654.041897198699	1
0	6780	654.041897198699	2
0	6787	654.447118229067	1
0	6798	655.947118229067	0
0	6804	656.002527810651	1
0	6805	656.002527810651	2
0	6814	657.447118229067	1
0	6828	658.947118229067	0
0	6834	658.992356130165	1
0	6835	658.992356130165	2
0	6842	660.447118229067	1
0	6858	661.947118229067	0
0	6864	662.360215449598	1
0	6865	662.360215449598	2
0	6877	663.447118229067	1
0	6891	664.947118229067	0
0	6897	665.765528254338	1
0	6898	665.765528254338	2
0	6905	666.447118229067	1
0	6919	667.947118229067	0
0	6925	668.270803660347	1
0	6926	668.270803660347	2
0	6930	669.447118229067	1
0	6946	670.947118229067	0
0	6952	671.131375119413	1
0	6953	671.131375119413	2
0	6965	672.447118229067	1
0	6979	673.947118229067	0
0	6985	674.289751981331	1
0	6986	674.289751981331	2
0	6993	675.447118229067	1
0	7012	676.947118229067	0
0	7018	677.183118315137	1
0	7019	677.183118315137	2
0	7036	678.447118229067	1
0	7053	679.947118229067	0
0	7059	679.979906956765	1
0	7060	679.979906956765	2
0	7075	681.447118229067	1
0	7097	682.947118229067	0
0	7103	683.340727716085	1
0	7104	683.340727716085	2
0	7119	684.447118229067	1
0	7138	685.947118229067	0
0	7144	685.975271702892	1
0	7145	685.975271702892	2
0	7170	687.447118229067	1
0	7195	688.947118229067	0
0	7204	689.398880406109	1
0	7205	689.398880406109	2
0	7220	690.447118229067	1
0	7240	691.947118229067	0
0	7249	692.683120620426	1
0	7250	692.683120620426	2
0	7257	693.447118229067	1
0	7271	694.947118229067	0
0	7277	695.325871342749	1
0	7278	695.325871342749	2
0	7282	696.447118229067	1
0	7293	697.947118229067	0
0	7299	698.018994511263	1
0	7300	698.018994511263	2
0	7314	699.447118229067	1
0	7336	700.947118229067	0
0	7355	702.676292560615	1
0	7362	704.176292560615	0
0	7368	704.754151428479	1
0	7369	704.754151428479	2
0	7378	705.676292560615	1
0	7394	707.176292560615	0
0	7403	707.282404233338	1
0	7404	707.282404233338	2
0	7413	708.676292560615	1
0	7432	709.502715564378	2
0	7433	709.502715564378	3
0	7437	710.176292560615	2
0	7462	711.676292560615	1
0	7482	713.176292560615	0
0	7494	713.787903316454	1
0	7495	713.787903316454	2
0	7499	714.676292560615	1
0	7513	716.176292560615	0
0	7519	717.4804605948	1
0	7520	717.4804605948	2
0	7524	717.676292560615	1
0	7535	719.176292560615	0
0	7541	719.844795484868	1
0	7542	719.844795484868	2
0	7546	720.676292560615	1
0	7557	722.176292560615	0
0	7563	722.437157191785	1
0	7564	722.437157191785	2
0	7568	723.676292560615	1
0	7584	725.176292560615	0
0	7590	726.005015954	1
0	7591	726.005015954	2
0	7598	726.676292560615	1
0	7617	728.176292560615	0
0	7623	728.636426844652	1
0	7624	728.636426844652	2
0	7631	729.676292560615	1
0	7650	731.176292560615	0
0	7656	732.372692485866	1
0	7657	732.372692485866	2
0	7664	732.676292560615	1
0	7678	734.176292560615	0
0	7684	735.285912668206	1
0	7685	735.285912668206	2
0	7699	735.676292560615	1
0	7708	737.176292560615	0
0	7714	737.452093101932	1
0	7715	737.452093101932	2
0	7727	738.676292560615	1
0	7738	740.176292560615	0
0	7744	741.07166104423	1
0	7745	741.07166104423	2
0	7752	741.676292560615	1
0	7771	743.176292560615	0
0	7777	743.683441621991	1
0	7778	743.683441621991	2
0	7790	744.676292560615	1
0	7817	746.176292560615	0
0	7823	746.555068424117	1
0	7824	746.555068424117	2
0	7834	747.676292560615	1
0	7851	749.176292560615	0
0	7857	749.592577698177	1
0	7858	749.592577698177	2
0	7870	750.676292560615	1
0	7884	752.176292560615	0
0	7890	752.231455798792	1
0	7891	752.231455798792	2
0	7908	753.676292560615	1
0	7930	755.176292560615	0
0	7936	755.774772156482	1
0	7937	755.774772156482	2
0	7947	756.676292560615	1
0	7961	758.176292560615	0
0	7967	758.523767252606	1
0	7968	758.523767252606	2
0	7975	759.676292560615	1
0	7986	761.176292560615	0
0	7992	761.189958425852	1
0	7993	761.189958425852	2
0	7997	762.676292560615	1
0	8013	764.176292560615	0
0	8019	765.301346902374	1
0	8020	765.301346902374	2
0	8027	765.676292560615	1
0	8046	767.176292560615	0
0	8052	767.620493085618	1
0	8053	767.620493085618	2
0	8070	768.676292560615	1
0	8087	770.176292560615	0
0	8093	771.362097291841	1
0	8094	771.362097291841	2
0	8104	771.676292560615	1
0	8118	773.176292560615	0
0	8124	774.479854994852	1
0	8125	774.479854994852	2
0	8129	774.676292560615	1
0	8140	776.176292560615	0
0	8146	776.653174876181	1
0	8147	776.653174876181	2
0	8156	777.676292560615	1
0	8172	779.176292560615	0
0	8178	779.912317926271	1
0	8179	779.912317926271	2
0	8189	780.676292560615	1
0	8201	782.176292560615	0
0	8207	782.229540141134	1
0	8208	782.229540141134	2
0	8219	783.676292560615	1
0	8233	785.176292560615	0
0	8242	785.846418647869	1
0	8243	785.846418647869	2
0	8250	786.676292560615	1
0	8261	788.176292560615	0
0	8274	789.823014296418	1
0	8288	791.323014296418	0
0	8294	792.03168596272	1
0	8295	792.03168596272	2
0	8302	792.823014296418	1
0	8316	794.323014296418	0
0	8322	794.406699787212	1
0	8323	794.406699787212	2
0	8337	795.823014296418	1
0	8359	797.323014296418	0
0	8371	798.261593526307	1
0	8372	798.261593526307	2
0	8376	798.823014296418	1
0	8390	800.323014296418	0
0	8396	800.480145547634	1
0	8397	800.480145547634	2
0	8409	801.823014296418	1
0	8420	803.323014296418	0
0	8436	805.015331462139	1
0	8453	806.515331462139	0
0	8459	807.127227265	1
0	8460	807.127227265	2
0	8472	808.015331462139	1
0	8486	809.515331462139	0
0	8502	811.222870161369	1
0	8509	812.722870161369	0
0	8515	813.03108777693	1
0	8516	813.03108777693	2
0	8522	814.222870161369	1
0	8543	815.722870161369	0
0	8552	816.105082515391	1
0	8553	816.105082515391	2
0	8565	817.222870161369	1
0	8587	818.722870161369	0
0	8602	819.799853783045	1
0	8603	819.799853783045	2
0	8604	820.222870161369	1
0	8626	821.722870161369	0
0	8635	822.295927585865	1
0	8636	822.295927585865	2
0	8643	823.222870161369	1
0	8662	824.722870161369	0
0	8678	826.242295291084	1
0	8695	827.742295291084	0
0	8704	828.68743841105	1
0	8705	828.68743841105	2
0	8714	829.242295291084	1
0	8728	830.742295291084	0
0	8737	831.168502070259	1
0	8738	831.168502070259	2
0	8747	832.242295291084	1
0	8761	833.742295291084	0
0	8770	834.375914732642	1
0	8771	834.375914732642	2
0	8775	835.242295291084	1
0	8789	836.742295291084	0
0	8795	837.047320727238	1
0	8796	837.047320727238	2
0	8805	838.242295291084	1
0	8811	839.742295291084	0
0	8817	840.139071513254	1
0	8818	840.139071513254	2
0	8827	841.242295291084	1
0	8833	842.742295291084	0
0	8842	843.173125078484	1
0	8843	843.173125078484	2
0	8849	844.242295291084	1
0	8860	845.742295291084	0
0	8866	846.075891388841	1
0	8867	846.075891388841	2
0	8874	847.242295291084	1
0	8888	848.742295291084	0
0	8897	849.823018258639	1
0	8898	849.823018258639	2
0	8899	850.242295291084	1
0	8910	851.742295291084	0
0	8916	852.0134723339	1
0	8917	852.0134723339	2
0	8921	853.242295291084	1
0	8937	854.742295291084	0