version 3
run k_MM1_lbqf-13-20221127-16:03:35-25264
attr configname k_MM1_lbqf
attr datetime 20221127-16:03:35
attr datetimef 20221127-160335
attr experiment k_MM1_lbqf
attr inifile omnetpp.ini
attr iterationvars "$time=1.5, $num=5, $0=45732, $1=35463, $2=67563"
attr iterationvarsd time=1.5/num=5/45732/35463/67563
attr iterationvarsf time=1.5,num=5,45732,35463,67563-
attr measurement "$time=1.5, $num=5, $0=45732, $1=35463, $2=67563"
attr network lbqfkMM1
attr processid 25264
attr repetition 1
attr replication #1
attr resultdir results
attr runnumber 13
attr seedset 13
itervar num 5
itervar time 1.5
config description "MM1 module k-times lbqf"
config network lbqfkMM1
config **.interArrivalTime "truncnormal(uniform(0.5s, 1.5s), uniform(0.25s, 0.75s))"
config **.serviceTime 1.5s
config **.c 5
config **.capacity 10000
config record-eventlog false
config **.scalar-recording true
config **.vector-recording true
config repeat 4
config seed-1-mt 45732
config seed-2-mt 35463
config seed-3-mt 67563
config output-vector-file k_MM1_lbqf-5-1.5-results/1.vec
config output-scalar-file k_MM1_lbqf-5-1.5-results/1.sca

vector 0 lbqfkMM1.mm1[0] queueLength:vector ETV
attr interpolationmode none
attr recordingmode vector
attr title "queue length"
vector 1 lbqfkMM1.mm1[0] util:vector ETV
attr interpolationmode none
attr recordingmode vector
attr title resources
vector 2 lbqfkMM1.mm1[1] queueLength:vector ETV
attr interpolationmode none
attr recordingmode vector
attr title "queue length"
vector 3 lbqfkMM1.mm1[1] util:vector ETV
attr interpolationmode none
attr recordingmode vector
attr title resources
vector 4 lbqfkMM1.mm1[2] queueLength:vector ETV
attr interpolationmode none
attr recordingmode vector
attr title "queue length"
vector 5 lbqfkMM1.mm1[2] util:vector ETV
attr interpolationmode none
attr recordingmode vector
attr title resources
vector 6 lbqfkMM1.mm1[3] queueLength:vector ETV
attr interpolationmode none
attr recordingmode vector
attr title "queue length"
vector 7 lbqfkMM1.mm1[4] queueLength:vector ETV
attr interpolationmode none
attr recordingmode vector
attr title "queue length"
vector 8 lbqfkMM1.mm1[3] util:vector ETV
attr interpolationmode none
attr recordingmode vector
attr title resources
vector 9 lbqfkMM1.mm1[4] util:vector ETV
attr interpolationmode none
attr recordingmode vector
attr title resources
0	5	10	1
0	6	11.5	0
0	12	11.536506740222	1
0	13	11.536506740222	2
0	14	13	1
0	22	14.5	0
0	28	15.119658710088	1
0	29	15.119658710088	2
0	33	16	1
0	49	17.5	0
0	58	18.190212199633	1
0	59	18.190212199633	2
0	68	19	1
0	92	20.5	0
0	101	21.210839843605	1
0	102	21.210839843605	2
0	117	22	1
0	137	23.5	0
0	146	24.510518269433	1
0	147	24.510518269433	2
0	151	25	1
0	170	26.5	0
0	176	26.680607420822	1
0	177	26.680607420822	2
0	194	28	1
0	216	29.438751191568	2
0	217	29.438751191568	3
0	218	29.5	2
0	243	31	1
0	263	32.5	0
0	269	32.942839437883	1
0	270	32.942839437883	2
0	285	34	1
0	307	35.5	0
0	313	35.885621187234	1
0	314	35.885621187234	2
0	324	37	1
0	346	38.5	0
0	362	40.033951925604	1
0	379	41.533951925604	0
0	385	41.703249515454	1
0	386	41.703249515454	2
0	398	43.033951925604	1
0	417	44.533951925604	0
0	432	45.998782923007	1
0	433	45.998782923007	2
0	434	46.033951925604	1
0	451	47.533951925604	0
0	457	47.959097564279	1
0	458	47.959097564279	2
0	462	49.033951925604	1
0	478	50.533951925604	0
0	484	51.195197190855	1
0	485	51.195197190855	2
0	492	52.033951925604	1
0	506	53.533951925604	0
0	512	54.224240246923	1
0	513	54.224240246923	2
0	517	55.033951925604	1
0	533	56.533951925604	0
0	539	56.999597938994	1
0	540	56.999597938994	2
0	547	58.033951925604	1
0	571	59.533951925604	0
0	583	60.946072220299	1
0	584	60.946072220299	2
0	588	61.033951925604	1
0	605	62.533951925604	0
0	618	64.853048774159	1
0	632	66.353048774159	0
0	641	67.501949522826	1
0	642	67.501949522826	2
0	646	67.853048774159	1
0	660	69.353048774159	0
0	669	70.284814070224	1
0	670	70.284814070224	2
0	676	70.853048774159	1
0	687	72.353048774159	0
0	696	72.845088151957	1
0	697	72.845088151957	2
0	711	73.853048774159	1
0	725	75.353048774159	0
0	731	75.686900918697	1
0	732	75.686900918697	2
0	747	76.853048774159	1
0	769	78.353048774159	0
0	781	79.716927835921	1
0	782	79.716927835921	2
0	786	79.853048774159	1
0	808	81.353048774159	0
0	814	81.533313972628	1
0	815	81.533313972628	2
0	822	82.853048774159	1
0	841	84.353048774159	0
0	857	85.853591298302	1
0	869	87.353591298302	0
0	875	88.049233360329	1
0	876	88.049233360329	2
0	880	88.853591298302	1
0	891	90.353591298302	0
0	897	90.798254358498	1
0	898	90.798254358498	2
0	902	91.853591298302	1
0	918	93.353591298302	0
0	927	94.313489611759	1
0	928	94.313489611759	2
0	932	94.853591298302	1
0	946	96.353591298302	0
0	952	96.771316200758	1
0	953	96.771316200758	2
0	957	97.853591298302	1
0	968	99.353591298302	0
0	974	100.120661745815	1
0	975	100.120661745815	2
0	979	100.853591298302	1
0	995	102.353591298302	0
0	1001	102.484953562493	1
0	1002	102.484953562493	2
0	1009	103.853591298302	1
0	1028	105.353591298302	0
0	1034	105.732593327119	1
0	1035	105.732593327119	2
0	1047	106.853591298302	1
0	1064	108.353591298302	0
0	1070	108.695513104948	1
0	1071	108.695513104948	2
0	1088	109.853591298302	1
0	1105	111.353591298302	0
0	1111	111.831975434298	1
0	1112	111.831975434298	2
0	1122	112.853591298302	1
0	1138	114.353591298302	0
0	1144	114.651280021346	1
0	1145	114.651280021346	2
0	1157	115.853591298302	1
0	1171	117.353591298302	0
0	1177	117.780366981249	1
0	1178	117.780366981249	2
0	1190	118.853591298302	1
0	1207	120.353591298302	0
0	1213	120.571526978129	1
0	1214	120.571526978129	2
0	1226	121.853591298302	1
0	1240	123.353591298302	0
0	1246	123.471481606539	1
0	1247	123.471481606539	2
0	1264	124.853591298302	1
0	1278	126.353591298302	0
0	1284	126.652383202466	1
0	1285	126.652383202466	2
0	1302	127.853591298302	1
0	1322	129.353591298302	0
0	1337	130.688961944212	1
0	1338	130.688961944212	2
0	1342	130.853591298302	1
0	1353	132.353591298302	0
0	1359	133.594211851052	1
0	1360	133.594211851052	2
0	1364	133.853591298302	1
0	1375	135.353591298302	0
0	1381	136.340079901185	1
0	1382	136.340079901185	2
0	1386	136.853591298302	1
0	1397	138.353591298302	0
0	1403	138.543819124844	1
0	1404	138.543819124844	2
0	1413	139.853591298302	1
0	1427	141.353591298302	0
0	1436	142.412490914902	1
0	1437	142.412490914902	2
0	1441	142.853591298302	1
0	1452	144.353591298302	0
0	1458	144.892654701448	1
0	1459	144.892654701448	2
0	1468	145.853591298302	1
0	1479	147.353591298302	0
0	1485	147.911932457726	1
0	1486	147.911932457726	2
0	1493	148.853591298302	1
0	1512	150.353591298302	0
0	1518	150.731335597587	1
0	1519	150.731335597587	2
0	1531	151.853591298302	1
0	1550	153.353591298302	0
0	1562	154.555227334449	1
0	1563	154.555227334449	2
0	1567	154.853591298302	1
0	1584	156.353591298302	0
0	1590	156.87005750842	1
0	1591	156.87005750842	2
0	1600	157.853591298302	1
0	1614	159.353591298302	0
0	1620	160.298457681863	1
0	1621	160.298457681863	2
0	1628	160.853591298302	1
0	1634	162.353591298302	0
0	1640	162.838367508933	1
0	1641	162.838367508933	2
0	1647	163.853591298302	1
0	1663	165.353591298302	0
0	1679	166.938354798792	1
0	1686	168.438354798792	0
0	1692	168.443254398748	1
0	1693	168.443254398748	2
0	1707	169.938354798792	1
0	1721	171.438354798792	0
0	1740	172.989050759123	1
0	1754	174.489050759123	0
0	1760	175.055949529624	1
0	1761	175.055949529624	2
0	1768	175.989050759123	1
0	1787	177.489050759123	0
0	1796	178.540324737764	1
0	1797	178.540324737764	2
0	1801	178.989050759123	1
0	1815	180.489050759123	0
0	1824	181.278884954391	1
0	1825	181.278884954391	2
0	1836	181.989050759123	1
0	1850	183.489050759123	0
0	1859	184.181179944403	1
0	1860	184.181179944403	2
0	1867	184.989050759123	1
0	1881	186.489050759123	0
0	1887	186.661131075891	1
0	1888	186.661131075891	2
0	1897	187.989050759123	1
0	1913	189.489050759123	0
0	1925	190.570823918726	1
0	1926	190.570823918726	2
0	1930	190.989050759123	1
0	1952	192.489050759123	0
0	1964	193.687644043129	1
0	1965	193.687644043129	2
0	1966	193.989050759123	1
0	1980	195.489050759123	0
0	1989	196.225474295838	1
0	1990	196.225474295838	2
0	1991	196.989050759123	1
0	2002	198.489050759123	0
0	2011	199.679551033339	1
0	2012	199.679551033339	2
0	2013	199.989050759123	1
0	2024	201.489050759123	0
0	2030	201.685358360079	1
0	2031	201.685358360079	2
0	2040	202.989050759123	1
0	2051	204.489050759123	0
0	2067	206.536803964262	1
0	2089	208.036803964262	0
0	2117	210.984112134475	1
0	2128	212.484112134475	0
0	2134	213.000635073695	1
0	2135	213.000635073695	2
0	2147	213.984112134475	1
0	2161	215.484112134475	0
0	2167	215.925497463984	1
0	2168	215.925497463984	2
0	2175	216.984112134475	1
0	2189	218.484112134475	0
0	2195	218.861344091004	1
0	2196	218.861344091004	2
0	2200	219.984112134475	1
0	2221	221.484112134475	0
0	2233	222.345756071829	1
0	2234	222.345756071829	2
0	2238	222.984112134475	1
0	2250	224.484112134475	0
0	2256	224.750737639066	1
0	2257	224.750737639066	2
0	2258	225.984112134475	1
0	2271	227.484112134475	0
0	2280	228.341943830193	1
0	2281	228.341943830193	2
0	2285	228.984112134475	1
0	2299	230.484112134475	0
0	2305	231.340627948592	1
0	2306	231.340627948592	2
0	2315	231.984112134475	1
0	2326	233.484112134475	0
0	2332	233.552304680159	1
0	2333	233.552304680159	2
0	2340	234.984112134475	1
0	2354	236.484112134475	0
0	2363	237.609296024446	1
0	2364	237.609296024446	2
0	2365	237.984112134475	1
0	2376	239.484112134475	0
0	2382	239.975777895681	1
0	2383	239.975777895681	2
0	2392	240.984112134475	1
0	2408	242.484112134475	0
0	2420	243.756288558135	1
0	2421	243.756288558135	2
0	2425	243.984112134475	1
0	2442	245.484112134475	0
0	2448	245.601413948559	1
0	2449	245.601413948559	2
0	2458	246.984112134475	1
0	2464	248.484112134475	0
0	2470	249.265342951769	1
0	2471	249.265342951769	2
0	2475	249.984112134475	1
0	2486	251.484112134475	0
0	2499	253.047209747419	1
0	2508	254.547209747419	0
0	2514	254.82604941108	1
0	2515	254.82604941108	2
0	2524	256.047209747419	1
0	2535	257.547209747419	0
0	2541	257.669793325002	1
0	2542	257.669793325002	2
0	2554	259.047209747419	1
0	2568	260.547209747419	0
0	2574	261.036810228402	1
0	2575	261.036810228402	2
0	2587	262.047209747419	1
0	2601	263.547209747419	0
0	2617	265.354929910049	1
0	2629	266.854929910049	0
0	2638	268.080432206157	1
0	2639	268.080432206157	2
0	2640	268.354929910049	1
0	2651	269.854929910049	0
0	2657	270.243279079722	1
0	2658	270.243279079722	2
0	2662	271.354929910049	1
0	2673	272.854929910049	0
0	2679	272.955449746523	1
0	2680	272.955449746523	2
0	2699	274.354929910049	1
0	2719	275.854929910049	0
0	2725	275.864819899309	1
0	2726	275.864819899309	2
0	2749	277.354929910049	1
0	2763	278.854929910049	0
0	2769	279.307528368367	1
0	2770	279.307528368367	2
0	2780	280.354929910049	1
0	2799	281.854929910049	0
0	2808	282.503879819234	1
0	2809	282.503879819234	2
0	2813	283.354929910049	1
0	2832	284.854929910049	0
0	2838	285.605095151945	1
0	2839	285.605095151945	2
0	2846	286.354929910049	1
0	2860	287.854929910049	0
0	2869	289.175495601812	1
0	2870	289.175495601812	2
0	2871	289.354929910049	1
0	2887	290.854929910049	0
0	2896	292.161206945146	1
0	2897	292.161206945146	2
0	2901	292.354929910049	1
0	2920	293.854929910049	0
0	2926	293.998726387447	1
0	2927	293.998726387447	2
0	2939	295.354929910049	1
0	2956	296.854929910049	0
0	2962	296.918143264093	1
0	2963	296.918143264093	2
0	2975	298.354929910049	1
0	2994	299.854929910049	0
0	3010	301.405875003304	1
0	3017	302.905875003304	0
0	3023	303.296765303046	1
0	3024	303.296765303046	2
0	3033	304.405875003304	1
0	3044	305.905875003304	0
0	3060	307.415909407619	1
0	3069	308.915909407619	0
0	3075	309.082466520262	1
0	3076	309.082466520262	2
0	3090	310.415909407619	1
0	3117	311.915909407619	0
0	3132	312.960453339784	1
0	3133	312.960453339784	2
0	3134	313.415909407619	1
0	3151	314.915909407619	0
0	3157	315.234351422691	1
0	3158	315.234351422691	2
0	3168	316.415909407619	1
0	3184	317.915909407619	0
0	3196	318.840513306711	1
0	3197	318.840513306711	2
0	3203	319.415909407619	1
0	3217	320.915909407619	0
0	3229	321.979933969251	1
0	3230	321.979933969251	2
0	3231	322.415909407619	1
0	3245	323.915909407619	0
0	3251	324.239115268528	1
0	3252	324.239115268528	2
0	3266	325.415909407619	1
0	3285	326.915909407619	0
0	3307	328.598458039145	1
0	3324	330.098458039145	0
0	3340	331.650669953479	1
0	3347	333.150669953479	0
0	3353	333.208364420146	1
0	3354	333.208364420146	2
0	3363	334.650669953479	1
0	3374	336.150669953479	0
0	3383	337.272916678501	1
0	3384	337.272916678501	2
0	3385	337.650669953479	1
0	3401	339.150669953479	0
0	3413	339.629998538094	1
0	3414	339.629998538094	2
0	3423	340.650669953479	1
0	3440	342.150669953479	0
0	3446	342.350709518083	1
0	3447	342.350709518083	2
0	3459	343.650669953479	1
0	3473	345.150669953479	0
0	3479	345.540761876556	1
0	3480	345.540761876556	2
0	3487	346.650669953479	1
0	3503	348.150669953479	0
0	3512	348.265820458506	1
0	3513	348.265820458506	2
0	3522	349.650669953479	1
0	3536	351.150669953479	0
0	3545	351.270613260288	1
0	3546	351.270613260288	2
0	3565	352.650669953479	1
0	3582	354.150669953479	0
0	3594	354.640990720694	1
0	3595	354.640990720694	2
0	3602	355.650669953479	1
0	3619	357.150669953479	0
0	3628	357.630065409738	1
0	3629	357.630065409738	2
0	3635	358.650669953479	1
0	3659	360.030207634894	2
0	3660	360.030207634894	3
0	3661	360.150669953479	2
0	3681	361.650669953479	1
0	3706	363.150669953479	0
0	3718	363.784568076248	1
0	3719	363.784568076248	2
0	3723	364.650669953479	1
0	3740	366.150669953479	0
0	3746	366.489760617119	1
0	3747	366.489760617119	2
0	3751	367.650669953479	1
0	3762	369.150669953479	0
0	3771	369.666258457753	1
0	3772	369.666258457753	2
0	3773	370.650669953479	1
0	3784	372.150669953479	0
0	3790	372.323432480894	1
0	3791	372.323432480894	2
0	3800	373.650669953479	1
0	3811	375.150669953479	0
0	3817	375.457790015812	1
0	3818	375.457790015812	2
0	3825	376.650669953479	1
0	3844	378.150669953479	0
0	3853	379.0405497962	1
0	3854	379.0405497962	2
0	3868	379.650669953479	1
0	3882	381.150669953479	0
0	3888	381.57220059107	1
0	3889	381.57220059107	2
0	3899	382.650669953479	1
0	3911	384.150669953479	0
0	3917	384.563091960733	1
0	3918	384.563091960733	2
0	3929	385.650669953479	1
0	3943	387.150669953479	0
0	3952	388.253891123103	1
0	3953	388.253891123103	2
0	3957	388.650669953479	1
0	3968	390.150669953479	0
0	3974	390.280023547965	1
0	3975	390.280023547965	2
0	3984	391.650669953479	1
0	3998	393.150669953479	0
0	4004	393.575153274918	1
0	4005	393.575153274918	2
0	4017	394.650669953479	1
0	4031	396.150669953479	0
0	4037	396.385930591247	1
0	4038	396.385930591247	2
0	4063	397.650669953479	1
0	4085	399.150669953479	0
0	4094	399.758466552775	1
0	4095	399.758466552775	2
0	4102	400.650669953479	1
0	4124	402.150669953479	0
0	4133	402.831210798677	1
0	4134	402.831210798677	2
0	4141	403.650669953479	1
0	4155	405.150669953479	0
0	4164	406.456580853784	1
0	4165	406.456580853784	2
0	4166	406.650669953479	1
0	4177	408.150669953479	0
0	4183	408.950975776816	1
0	4184	408.950975776816	2
0	4188	409.650669953479	1
0	4199	411.150669953479	0
0	4205	412.081280430808	1
0	4206	412.081280430808	2
0	4210	412.650669953479	1
0	4226	414.150669953479	0
0	4238	415.209797332856	1
0	4239	415.209797332856	2
0	4240	415.650669953479	1
0	4254	417.150669953479	0
0	4263	418.49106590909	1
0	4264	418.49106590909	2
0	4265	418.650669953479	1
0	4281	420.150669953479	0
0	4287	420.426031882178	1
0	4288	420.426031882178	2
0	4300	421.650669953479	1
0	4309	423.150669953479	0
0	4315	423.153302039343	1
0	4316	423.153302039343	2
0	4328	424.650669953479	1
0	4337	426.150669953479	0
0	4343	426.737272850243	1
0	4344	426.737272850243	2
0	4353	427.650669953479	1
0	4369	429.150669953479	0
0	4378	429.655918009528	1
0	4379	429.655918009528	2
0	4393	430.650669953479	1
0	4410	432.150669953479	0
0	4419	432.440967065334	1
0	4420	432.440967065334	2
0	4435	433.650669953479	1
0	4452	435.150669953479	0
0	4458	435.260924883209	1
0	4459	435.260924883209	2
0	4466	436.650669953479	1
0	4482	438.150669953479	0
0	4488	438.522260501688	1
0	4489	438.522260501688	2
0	4496	439.650669953479	1
0	4515	441.150669953479	0
0	4524	442.125753610271	1
0	4525	442.125753610271	2
0	4529	442.650669953479	1
0	4543	444.150669953479	0
0	4549	444.972336299562	1
0	4550	444.972336299562	2
0	4554	445.650669953479	1
0	4570	447.150669953479	0
0	4576	447.469756634513	1
0	4577	447.469756634513	2
0	4584	448.650669953479	1
0	4603	450.150669953479	0
0	4609	450.994429283621	1
0	4610	450.994429283621	2
0	4617	451.650669953479	1
0	4631	453.150669953479	0
0	4637	453.230087493903	1
0	4638	453.230087493903	2
0	4647	454.650669953479	1
0	4653	456.150669953479	0
0	4659	456.467292406891	1
0	4660	456.467292406891	2
0	4669	457.650669953479	1
0	4680	459.150669953479	0
0	4696	461.033275693589	1
0	4708	462.533275693589	0
0	4714	462.936216275891	1
0	4715	462.936216275891	2
0	4719	464.033275693589	1
0	4735	465.533275693589	0
0	4741	465.768218836051	1
0	4742	465.768218836051	2
0	4754	467.033275693589	1
0	4773	468.533275693589	0
0	4779	469.250607019122	1
0	4780	469.250607019122	2
0	4795	470.033275693589	1
0	4812	471.533275693589	0
0	4818	471.861009179615	1
0	4819	471.861009179615	2
0	4831	473.033275693589	1
0	4848	474.533275693589	0
0	4860	475.864137807732	1
0	4861	475.864137807732	2
0	4862	476.033275693589	1
0	4868	477.533275693589	0
0	4874	478.777508262996	1
0	4875	478.777508262996	2
0	4876	479.033275693589	1
0	4889	480.533275693589	0
0	4898	481.291402640137	1
0	4899	481.291402640137	2
0	4903	482.033275693589	1
0	4917	483.533275693589	0
0	4923	483.771357882685	1
0	4924	483.771357882685	2
0	4933	485.033275693589	1
0	4949	486.533275693589	0
0	4964	487.781801572961	1
0	4965	487.781801572961	2
0	4971	488.033275693589	1
0	4988	489.533275693589	0
0	4997	490.1383646597	1
0	4998	490.1383646597	2
0	5002	491.033275693589	1
0	5021	492.533275693589	0
0	5027	492.894659176271	1
0	5028	492.894659176271	2
0	5045	494.033275693589	1
0	5054	495.533275693589	0
0	5066	496.707571008604	1
0	5067	496.707571008604	2
0	5073	497.033275693589	1
0	5082	498.533275693589	0
0	5088	498.790530249006	1
0	5089	498.790530249006	2
0	5103	500.033275693589	1
0	5117	501.533275693589	0
0	5123	501.713464299453	1
0	5124	501.713464299453	2
0	5131	503.033275693589	1
0	5145	504.533275693589	0
0	5157	505.504222503481	1
0	5158	505.504222503481	2
0	5159	506.033275693589	1
0	5170	507.533275693589	0
0	5176	507.637794369862	1
0	5177	507.637794369862	2
0	5186	509.033275693589	1
0	5197	510.533275693589	0
0	5203	511.158963590756	1
0	5204	511.158963590756	2
0	5211	512.033275693589	1
0	5225	513.533275693589	0
0	5231	513.708788700313	1
0	5232	513.708788700313	2
0	5236	515.033275693589	1
0	5252	516.533275693589	0
0	5258	516.674958033642	1
0	5259	516.674958033642	2
0	5271	518.033275693589	1
0	5285	519.533275693589	0
0	5291	519.534933967556	1
0	5292	519.534933967556	2
0	5304	521.033275693589	1
0	5318	522.533275693589	0
0	5324	522.79419080877	1
0	5325	522.79419080877	2
0	5342	524.033275693589	1
0	5359	525.533275693589	0
0	5365	525.663276714682	1
0	5366	525.663276714682	2
0	5381	527.033275693589	1
0	5395	528.533275693589	0
0	5404	529.352973579774	1
0	5405	529.352973579774	2
0	5414	530.033275693589	1
0	5423	531.533275693589	0
0	5429	531.751189475483	1
0	5430	531.751189475483	2
0	5439	533.033275693589	1
0	5445	534.533275693589	0
0	5451	534.98111355742	1
0	5452	534.98111355742	2
0	5456	536.033275693589	1
0	5472	537.533275693589	0
0	5478	538.303612406024	1
0	5479	538.303612406024	2
0	5486	539.033275693589	1
0	5505	540.533275693589	0
0	5514	541.767969220931	1
0	5515	541.767969220931	2
0	5519	542.033275693589	1
0	5538	543.533275693589	0
0	5544	544.216496423971	1
0	5545	544.216496423971	2
0	5552	545.033275693589	1
0	5566	546.533275693589	0
0	5572	546.569906806386	1
0	5573	546.569906806386	2
0	5582	548.033275693589	1
0	5596	549.533275693589	0
0	5602	549.557268144567	1
0	5603	549.557268144567	2
0	5615	551.033275693589	1
0	5631	552.533275693589	0
0	5643	553.85488835752	1
0	5644	553.85488835752	2
0	5653	554.033275693589	1
0	5670	555.533275693589	0
0	5676	555.72651025331	1
0	5677	555.72651025331	2
0	5684	557.033275693589	1
0	5698	558.533275693589	0
0	5707	559.436152844725	1
0	5708	559.436152844725	2
0	5709	560.033275693589	1
0	5720	561.533275693589	0
0	5726	561.610930509627	1
0	5727	561.610930509627	2
0	5736	563.033275693589	1
0	5755	564.533275693589	0
0	5767	565.389161820194	1
0	5768	565.389161820194	2
0	5774	566.033275693589	1
0	5788	567.533275693589	0
0	5807	569.60293062934	1
0	5819	571.10293062934	0
0	5825	571.834235474038	1
0	5826	571.834235474038	2
0	5830	572.60293062934	1
0	5841	574.10293062934	0
0	5847	574.711426807622	1
0	5848	574.711426807622	2
0	5852	575.60293062934	1
0	5868	577.10293062934	0
0	5874	577.755306420445	1
0	5875	577.755306420445	2
0	5882	578.60293062934	1
0	5896	580.10293062934	0
0	5902	580.509071217734	1
0	5903	580.509071217734	2
0	5917	581.60293062934	1
0	5931	583.10293062934	0
0	5937	583.812517056923	1
0	5938	583.812517056923	2
0	5950	584.60293062934	1
0	5969	586.10293062934	0
0	5978	586.645292505529	1
0	5979	586.645292505529	2
0	5996	587.60293062934	1
0	6013	589.10293062934	0
0	6032	590.724263715591	1
0	6042	592.224263715591	0
0	6048	592.34865822154	1
0	6049	592.34865822154	2
0	6058	593.724263715591	1
0	6074	595.224263715591	0
0	6083	595.861347109398	1
0	6084	595.861347109398	2
0	6088	596.724263715591	1
0	6107	598.224263715591	0
0	6113	598.279244723849	1
0	6114	598.279244723849	2
0	6129	599.724263715591	1
0	6146	601.224263715591	0
0	6162	603.552944744375	1
0	6176	605.052944744375	0
0	6185	605.426099697675	1
0	6186	605.426099697675	2
0	6195	606.552944744375	1
0	6209	608.052944744375	0
0	6218	608.853706301738	1
0	6219	608.853706301738	2
0	6223	609.552944744375	1
0	6242	611.052944744375	0
0	6251	612.08437854101	1
0	6252	612.08437854101	2
0	6256	612.552944744375	1
0	6270	614.052944744375	0
0	6279	614.413476797703	1
0	6280	614.413476797703	2
0	6286	615.552944744375	1
0	6297	617.052944744375	0
0	6303	617.118334724035	1
0	6304	617.118334724035	2
0	6316	618.552944744375	1
0	6330	620.052944744375	0
0	6342	621.081507267884	1
0	6343	621.081507267884	2
0	6349	621.552944744375	1
0	6363	623.052944744375	0
0	6382	625.098062053767	1
0	6391	626.598062053767	0
0	6397	627.388270196358	1
0	6398	627.388270196358	2
0	6407	628.098062053767	1
0	6418	629.598062053767	0
0	6424	630.730986132105	1
0	6425	630.730986132105	2
0	6432	631.098062053767	1
0	6451	632.598062053767	0
0	6457	633.393554605002	1
0	6458	633.393554605002	2
0	6470	634.098062053767	1
0	6487	635.598062053767	0
0	6493	635.654909532316	1
0	6494	635.654909532316	2
0	6506	637.098062053767	1
0	6517	638.598062053767	0
0	6526	639.443637761138	1
0	6527	639.443637761138	2
0	6531	640.098062053767	1
0	6545	641.598062053767	0
0	6551	641.982300621203	1
0	6552	641.982300621203	2
0	6556	643.098062053767	1
0	6567	644.598062053767	0
0	6573	645.123997379439	1
0	6574	645.123997379439	2
0	6578	646.098062053767	1
0	6589	647.598062053767	0
0	6595	647.919333879166	1
0	6596	647.919333879166	2
0	6605	649.098062053767	1
0	6616	650.598062053767	0
0	6622	651.029011455798	1
0	6623	651.029011455798	2
0	6635	652.098062053767	1
0	6649	653.598062053767	0
0	6655	653.879222452397	1
0	6656	653.879222452397	2
0	6673	655.098062053767	1
0	6687	656.598062053767	0
0	6693	656.82930120732	1
0	6694	656.82930120732	2
0	6709	658.098062053767	1
0	6726	659.598062053767	0
0	6732	659.707242499142	1
0	6733	659.707242499142	2
0	6745	661.098062053767	1
0	6767	662.598062053767	0
0	6776	663.505098810403	1
0	6777	663.505098810403	2
0	6789	664.098062053767	1
0	6803	665.598062053767	0
0	6809	666.322142071182	1
0	6810	666.322142071182	2
0	6817	667.098062053767	1
0	6831	668.598062053767	0
0	6837	668.817208454556	1
0	6838	668.817208454556	2
0	6847	670.098062053767	1
0	6858	671.598062053767	0
0	6874	673.405050161992	1
0	6881	674.905050161992	0
0	6887	674.971084424391	1
0	6888	674.971084424391	2
0	6894	676.405050161992	1
0	6905	677.905050161992	0
0	6917	679.291259014202	1
0	6918	679.291259014202	2
0	6919	679.405050161992	1
0	6935	680.905050161992	0
0	6954	683.480472228695	1
0	6963	684.980472228695	0
0	6969	685.118301310823	1
0	6970	685.118301310823	2
0	6984	686.480472228695	1
0	7001	687.980472228695	0
0	7010	688.251954995096	1
0	7011	688.251954995096	2
0	7023	689.480472228695	1
0	7044	690.980472228695	0
0	7050	691.420778873983	1
0	7051	691.420778873983	2
0	7069	692.480472228695	1
0	7089	693.980472228695	0
0	7095	694.230976184964	1
0	7096	694.230976184964	2
0	7108	695.480472228695	1
0	7127	696.980472228695	0
0	7136	697.694782664529	1
0	7137	697.694782664529	2
0	7144	698.480472228695	1
0	7156	699.980472228695	0
0	7162	700.522754513786	1
0	7163	700.522754513786	2
0	7164	701.480472228695	1
0	7177	702.980472228695	0
0	7183	703.450881398617	1
0	7184	703.450881398617	2
0	7196	704.480472228695	1
0	7215	705.980472228695	0
0	7221	706.617250546317	1
0	7222	706.617250546317	2
0	7232	707.480472228695	1
0	7254	708.980472228695	0
0	7260	709.651198921873	1
0	7261	709.651198921873	2
0	7268	710.480472228695	1
0	7287	711.980472228695	0
0	7293	712.340640727304	1
0	7294	712.340640727304	2
0	7311	713.480472228695	1
0	7323	714.980472228695	0
0	7329	714.991954681538	1
0	7330	714.991954681538	2
0	7337	716.480472228695	1
0	7353	717.980472228695	0
0	7369	719.533333259579	1
0	7381	721.033333259579	0
0	7390	722.41822218455	1
0	7391	722.41822218455	2
0	7392	722.533333259579	1
0	7398	724.033333259579	0
0	7404	724.074762960382	1
0	7405	724.074762960382	2
0	7411	725.533333259579	1
0	7417	727.033333259579	0
0	7423	727.205246267485	1
0	7424	727.205246267485	2
0	7433	728.533333259579	1
0	7444	730.033333259579	0
0	7450	730.673990292617	1
0	7451	730.673990292617	2
0	7458	731.533333259579	1
0	7474	733.033333259579	0
0	7480	733.276363345897	1
0	7481	733.276363345897	2
0	7488	734.533333259579	1
0	7507	736.033333259579	0
0	7523	737.539363595876	1
0	7535	739.039363595876	0
0	7541	739.919093434915	1
0	7542	739.919093434915	2
0	7546	740.539363595876	1
0	7562	742.039363595876	0
0	7578	744.192583734026	1
0	7590	745.692583734026	0
0	7596	745.73210124242	1
0	7597	745.73210124242	2
0	7611	747.192583734026	1
0	7630	748.692583734026	0
0	7645	749.840110270032	1
0	7646	749.840110270032	2
0	7647	750.192583734026	1
0	7659	751.692583734026	0
0	7665	751.779788917771	1
0	7666	751.779788917771	2
0	7675	753.192583734026	1
0	7696	754.692583734026	0
0	7711	755.999148073016	1
0	7712	755.999148073016	2
0	7713	756.192583734026	1
0	7730	757.692583734026	0
0	7736	757.873549897595	1
0	7737	757.873549897595	2
0	7741	759.192583734026	1
0	7757	760.692583734026	0
0	7763	760.848504720848	1
0	7764	760.848504720848	2
0	7779	762.192583734026	1
0	7801	763.692583734026	0
0	7807	764.160094612554	1
0	7808	764.160094612554	2
0	7818	765.192583734026	1
0	7837	766.692583734026	0
0	7843	766.70882552664	1
0	7844	766.70882552664	2
0	7861	768.192583734026	1
0	7878	769.692583734026	0
0	7887	770.258107076085	1
0	7888	770.258107076085	2
0	7900	771.192583734026	1
0	7919	772.692583734026	0
0	7928	773.412068627004	1
0	7929	773.412068627004	2
0	7941	774.192583734026	1
0	7963	775.692583734026	0
0	7975	776.894999597768	1
0	7976	776.894999597768	2
0	7980	777.192583734026	1
0	7997	778.692583734026	0
0	8003	778.962506087786	1
0	8004	778.962506087786	2
0	8013	780.192583734026	1
0	8024	781.692583734026	0
0	8033	782.513405656504	1
0	8034	782.513405656504	2
0	8038	783.192583734026	1
0	8057	784.692583734026	0
0	8066	785.62259796029	1
0	8067	785.62259796029	2
0	8071	786.192583734026	1
0	8085	787.692583734026	0
0	8091	788.107846692959	1
0	8092	788.107846692959	2
0	8096	789.192583734026	1
0	8112	790.692583734026	0
0	8121	791.393904536104	1
0	8122	791.393904536104	2
0	8131	792.192583734026	1
0	8150	793.692583734026	0
0	8156	794.325913689538	1
0	8157	794.325913689538	2
0	8167	795.192583734026	1
0	8184	796.692583734026	0
0	8193	797.668631694744	1
0	8194	797.668631694744	2
0	8200	798.192583734026	1
0	8211	799.692583734026	0
0	8220	800.254812167515	1
0	8221	800.254812167515	2
0	8235	801.192583734026	1
0	8254	802.692583734026	0
0	8266	803.414685384569	1
0	8267	803.414685384569	2
0	8274	804.192583734026	1
0	8294	805.692583734026	0
0	8300	805.779539264862	1
0	8301	805.779539264862	2
0	8315	807.192583734026	1
0	8339	808.692583734026	0
0	8351	809.563557477825	1
0	8352	809.563557477825	2
0	8359	810.192583734026	1
0	8384	811.692583734026	0
0	8400	813.65114302095	1
0	8412	815.15114302095	0
0	8421	815.788283268327	1
0	8422	815.788283268327	2
0	8426	816.65114302095	1
0	8442	818.15114302095	0
0	8448	818.975591512021	1
0	8449	818.975591512021	2
0	8461	819.65114302095	1
0	8485	821.15114302095	0
0	8507	822.968388879983	1
0	8525	824.468388879983	0
0	8531	825.029474768978	1
0	8532	825.029474768978	2
0	8541	825.968388879983	1
0	8560	827.468388879983	0
0	8566	828.204434212448	1
0	8567	828.204434212448	2
0	8574	828.968388879983	1
0	8588	830.468388879983	0
0	8594	831.469251095078	1
0	8595	831.469251095078	2
0	8602	831.968388879983	1
0	8618	833.468388879983	0
0	8624	833.724514286191	1
0	8625	833.724514286191	2
0	8632	834.968388879983	1
0	8651	836.468388879983	0
0	8657	837.110502015024	1
0	8658	837.110502015024	2
0	8670	837.968388879983	1
0	8687	839.468388879983	0
0	8696	840.483878339867	1
0	8697	840.483878339867	2
0	8701	840.968388879983	1
0	8712	842.468388879983	0
0	8718	842.873873414716	1
0	8719	842.873873414716	2
0	8723	843.968388879983	1
0	8739	845.468388879983	0
0	8745	846.310836242385	1
0	8746	846.310836242385	2
0	8758	846.968388879983	1
0	8770	848.468388879983	0
0	8776	848.521860939784	1
0	8777	848.521860939784	2
0	8791	849.968388879983	1
0	8805	851.468388879983	0
0	8811	851.677342837692	1
0	8812	851.677342837692	2
0	8824	852.968388879983	1
0	8838	854.468388879983	0
0	8847	854.836975202236	1
0	8848	854.836975202236	2
0	8857	855.968388879983	1
0	8866	857.468388879983	0
0	8872	857.636821323719	1
0	8873	857.636821323719	2
0	8885	858.968388879983	1
0	8896	860.468388879983	0
0	8902	860.858241552831	1
0	8903	860.858241552831	2
0	8915	861.968388879983	1
0	8929	863.468388879983	0
0	8935	864.124877074778	1
0	8936	864.124877074778	2
0	8943	864.968388879983	1
0	8954	866.468388879983	0
0	8960	867.052792521171	1
0	8961	867.052792521171	2
0	8965	867.968388879983	1
0	8981	869.468388879983	0