version 3
run k_MM1_lbqf-14-20221127-16:03:35-25264
attr configname k_MM1_lbqf
attr datetime 20221127-16:03:35
attr datetimef 20221127-160335
attr experiment k_MM1_lbqf
attr inifile omnetpp.ini
attr iterationvars "$time=1.5, $num=5, $0=47853, $1=24674, $2=96433"
attr iterationvarsd time=1.5/num=5/47853/24674/96433
attr iterationvarsf time=1.5,num=5,47853,24674,96433-
attr measurement "$time=1.5, $num=5, $0=47853, $1=24674, $2=96433"
attr network lbqfkMM1
attr processid 25264
attr repetition 2
attr replication #2
attr resultdir results
attr runnumber 14
attr seedset 14
itervar num 5
itervar time 1.5
config description "MM1 module k-times lbqf"
config network lbqfkMM1
config **.interArrivalTime "truncnormal(uniform(0.5s, 1.5s), uniform(0.25s, 0.75s))"
config **.serviceTime 1.5s
config **.c 5
config **.capacity 10000
config record-eventlog false
config **.scalar-recording true
config **.vector-recording true
config repeat 4
config seed-1-mt 47853
config seed-2-mt 24674
config seed-3-mt 96433
config output-vector-file k_MM1_lbqf-5-1.5-results/2.vec
config output-scalar-file k_MM1_lbqf-5-1.5-results/2.sca

vector 0 lbqfkMM1.mm1[0] queueLength:vector ETV
attr interpolationmode none
attr recordingmode vector
attr title "queue length"
vector 1 lbqfkMM1.mm1[1] queueLength:vector ETV
attr interpolationmode none
attr recordingmode vector
attr title "queue length"
vector 2 lbqfkMM1.mm1[0] util:vector ETV
attr interpolationmode none
attr recordingmode vector
attr title resources
vector 3 lbqfkMM1.mm1[1] util:vector ETV
attr interpolationmode none
attr recordingmode vector
attr title resources
vector 4 lbqfkMM1.mm1[2] queueLength:vector ETV
attr interpolationmode none
attr recordingmode vector
attr title "queue length"
vector 5 lbqfkMM1.mm1[3] queueLength:vector ETV
attr interpolationmode none
attr recordingmode vector
attr title "queue length"
vector 6 lbqfkMM1.mm1[2] util:vector ETV
attr interpolationmode none
attr recordingmode vector
attr title resources
vector 7 lbqfkMM1.mm1[3] util:vector ETV
attr interpolationmode none
attr recordingmode vector
attr title resources
vector 8 lbqfkMM1.mm1[4] queueLength:vector ETV
attr interpolationmode none
attr recordingmode vector
attr title "queue length"
vector 9 lbqfkMM1.mm1[4] util:vector ETV
attr interpolationmode none
attr recordingmode vector
attr title resources
0	5	10	1
0	11	11.5	0
0	17	11.754894964538	1
0	18	11.754894964538	2
0	27	13	1
0	43	14.5	0
0	55	15.696082024505	1
0	56	15.696082024505	2
0	60	16	1
0	77	17.5	0
0	83	17.886191837167	1
0	84	17.886191837167	2
0	88	19	1
0	99	20.5	0
0	108	21.589354263117	1
0	109	21.589354263117	2
0	110	22	1
0	121	23.5	0
0	127	24.474876909803	1
0	128	24.474876909803	2
0	132	25	1
0	143	26.5	0
0	149	27.134092701991	1
0	150	27.134092701991	2
0	154	28	1
0	165	29.5	0
0	171	29.766166920389	1
0	172	29.766166920389	2
0	176	31	1
0	187	32.5	0
0	193	33.316837979823	1
0	194	33.316837979823	2
0	203	34	1
0	219	35.5	0
0	228	36.289478317505	1
0	229	36.289478317505	2
0	236	37	1
0	258	38.5	0
0	267	39.16769629705	1
0	268	39.16769629705	2
0	277	40	1
0	296	41.5	0
0	305	42.106425667811	1
0	306	42.106425667811	2
0	318	43	1
0	335	44.5	0
0	341	44.875935910745	1
0	342	44.875935910745	2
0	349	46	1
0	378	47.5	0
0	384	48.096511550092	1
0	385	48.096511550092	2
0	403	49	1
0	423	50.5	0
0	429	50.810420330285	1
0	430	50.810420330285	2
0	437	52	1
0	456	53.5	0
0	462	54.384088049699	1
0	463	54.384088049699	2
0	470	55	1
0	484	56.5	0
0	500	59.204370337157	1
0	506	60.704370337157	0
0	515	62.032813358156	1
0	516	62.032813358156	2
0	517	62.204370337157	1
0	528	63.704370337157	0
0	541	65.719414780883	1
0	550	67.219414780883	0
0	556	67.224425634979	1
0	557	67.224425634979	2
0	571	68.719414780883	1
0	585	70.219414780883	0
0	591	71.002795531332	1
0	592	71.002795531332	2
0	599	71.719414780883	1
0	613	73.219414780883	0
0	619	73.629057750227	1
0	620	73.629057750227	2
0	627	74.719414780883	1
0	638	76.219414780883	0
0	644	76.541273083202	1
0	645	76.541273083202	2
0	654	77.719414780883	1
0	668	79.219414780883	0
0	674	79.836705961027	1
0	675	79.836705961027	2
0	692	80.719414780883	1
0	711	82.219414780883	0
0	733	83.799293267718	1
0	748	85.299293267718	0
0	754	86.095919162204	1
0	755	86.095919162204	2
0	759	86.799293267718	1
0	770	88.299293267718	0
0	776	88.391784777715	1
0	777	88.391784777715	2
0	786	89.799293267718	1
0	800	91.299293267718	0
0	806	91.430609255738	1
0	807	91.430609255738	2
0	819	92.799293267718	1
0	833	94.299293267718	0
0	845	95.736822623473	1
0	846	95.736822623473	2
0	847	95.799293267718	1
0	863	97.299293267718	0
0	869	98.587972458558	1
0	870	98.587972458558	2
0	877	98.799293267718	1
0	886	100.299293267718	0
0	892	100.547403382704	1
0	893	100.547403382704	2
0	899	101.799293267718	1
0	910	103.299293267718	0
0	916	103.357018393046	1
0	917	103.357018393046	2
0	924	104.799293267718	1
0	940	106.299293267718	0
0	949	106.544676958294	1
0	950	106.544676958294	2
0	964	107.799293267718	1
0	978	109.299293267718	0
0	990	110.275692522826	1
0	991	110.275692522826	2
0	995	110.799293267718	1
0	1017	112.299293267718	0
0	1026	113.455279908973	1
0	1027	113.455279908973	2
0	1036	113.799293267718	1
0	1055	115.299293267718	0
0	1064	115.849363926151	1
0	1065	115.849363926151	2
0	1072	116.799293267718	1
0	1104	118.299293267718	0
0	1113	119.181745372673	1
0	1114	119.181745372673	2
0	1124	119.799293267718	1
0	1144	121.299293267718	0
0	1150	121.573947333395	1
0	1151	121.573947333395	2
0	1160	122.799293267718	1
0	1174	124.299293267718	0
0	1180	124.652102494523	1
0	1181	124.652102494523	2
0	1188	125.799293267718	1
0	1204	127.299293267718	0
0	1216	128.771447593698	1
0	1217	128.771447593698	2
0	1218	128.799293267718	1
0	1232	130.299293267718	0
0	1238	131.188062825956	1
0	1239	131.188062825956	2
0	1243	131.799293267718	1
0	1254	133.299293267718	0
0	1263	134.554329559794	1
0	1264	134.554329559794	2
0	1265	134.799293267718	1
0	1281	136.299293267718	0
0	1297	137.919636810223	1
0	1309	139.419636810223	0
0	1315	139.876195913383	1
0	1316	139.876195913383	2
0	1325	140.919636810223	1
0	1341	142.419636810223	0
0	1350	143.521715025789	1
0	1351	143.521715025789	2
0	1358	143.919636810223	1
0	1375	145.419636810223	0
0	1381	145.893425902304	1
0	1382	145.893425902304	2
0	1386	146.919636810223	1
0	1397	148.419636810223	0
0	1403	148.548713139117	1
0	1404	148.548713139117	2
0	1413	149.919636810223	1
0	1424	151.419636810223	0
0	1443	153.561263761735	1
0	1457	155.061263761735	0
0	1463	155.192003034704	1
0	1464	155.192003034704	2
0	1476	156.561263761735	1
0	1490	158.061263761735	0
0	1499	158.99634352341	1
0	1500	158.99634352341	2
0	1504	159.561263761735	1
0	1518	161.061263761735	0
0	1524	161.632249960547	1
0	1525	161.632249960547	2
0	1534	162.561263761735	1
0	1550	164.061263761735	0
0	1569	165.801850559565	1
0	1584	167.301850559565	0
0	1590	168.218911112592	1
0	1591	168.218911112592	2
0	1595	168.801850559565	1
0	1606	170.301850559565	0
0	1612	170.429460096063	1
0	1613	170.429460096063	2
0	1627	171.801850559565	1
0	1641	173.301850559565	0
0	1647	173.398737814639	1
0	1648	173.398737814639	2
0	1665	174.801850559565	1
0	1685	176.301850559565	0
0	1694	176.984730541297	1
0	1695	176.984730541297	2
0	1705	177.801850559565	1
0	1716	179.301850559565	0
0	1722	179.509375171679	1
0	1723	179.509375171679	2
0	1727	180.801850559565	1
0	1738	182.301850559565	0
0	1744	182.338848215578	1
0	1745	182.338848215578	2
0	1754	183.801850559565	1
0	1768	185.301850559565	0
0	1777	185.988924996024	1
0	1778	185.988924996024	2
0	1787	186.801850559565	1
0	1808	188.301850559565	0
0	1820	189.076848387041	1
0	1821	189.076848387041	2
0	1833	189.801850559565	1
0	1853	191.301850559565	0
0	1862	191.709020910104	1
0	1863	191.709020910104	2
0	1872	192.801850559565	1
0	1896	194.301850559565	0
0	1905	194.910068762765	1
0	1906	194.910068762765	2
0	1916	195.801850559565	1
0	1941	197.301850559565	0
0	1957	199.330545002062	1
0	1969	200.830545002062	0
0	1975	201.701585081756	1
0	1976	201.701585081756	2
0	1985	202.330545002062	1
0	1996	203.830545002062	0
0	2002	204.234662325376	1
0	2003	204.234662325376	2
0	2015	205.330545002062	1
0	2032	206.830545002062	0
0	2041	207.676791508294	1
0	2042	207.676791508294	2
0	2046	208.330545002062	1
0	2057	209.830545002062	0
0	2063	209.941518376657	1
0	2064	209.941518376657	2
0	2073	211.330545002062	1
0	2087	212.830545002062	0
0	2096	213.735724036993	1
0	2097	213.735724036993	2
0	2101	214.330545002062	1
0	2112	215.830545002062	0
0	2118	216.783019733625	1
0	2119	216.783019733625	2
0	2123	217.330545002062	1
0	2134	218.830545002062	0
0	2140	219.537126445705	1
0	2141	219.537126445705	2
0	2145	220.330545002062	1
0	2151	221.830545002062	0
0	2157	221.863778483034	1
0	2158	221.863778483034	2
0	2169	223.330545002062	1
0	2183	224.830545002062	0
0	2198	225.989555502586	1
0	2199	225.989555502586	2
0	2200	226.330545002062	1
0	2211	227.830545002062	0
0	2217	228.696578963675	1
0	2218	228.696578963675	2
0	2222	229.330545002062	1
0	2233	230.830545002062	0
0	2239	230.940051119728	1
0	2240	230.940051119728	2
0	2249	232.330545002062	1
0	2263	233.830545002062	0
0	2269	234.255054797926	1
0	2270	234.255054797926	2
0	2282	235.330545002062	1
0	2293	236.830545002062	0
0	2302	237.545694443894	1
0	2303	237.545694443894	2
0	2307	238.330545002062	1
0	2321	239.830545002062	0
0	2327	240.378823818326	1
0	2328	240.378823818326	2
0	2332	241.330545002062	1
0	2343	242.830545002062	0
0	2349	243.292942276563	1
0	2350	243.292942276563	2
0	2359	244.330545002062	1
0	2370	245.830545002062	0
0	2376	246.166905647895	1
0	2377	246.166905647895	2
0	2384	247.330545002062	1
0	2403	248.830545002062	0
0	2409	249.732167529923	1
0	2410	249.732167529923	2
0	2417	250.330545002062	1
0	2436	251.830545002062	0
0	2442	252.804767835934	1
0	2443	252.804767835934	2
0	2450	253.330545002062	1
0	2464	254.830545002062	0
0	2470	255.24753936596	1
0	2471	255.24753936596	2
0	2475	256.330545002062	1
0	2496	257.830545002062	0
0	2502	258.05191516502	1
0	2503	258.05191516502	2
0	2518	259.330545002062	1
0	2540	260.830545002062	0
0	2546	261.424987649013	1
0	2547	261.424987649013	2
0	2557	262.330545002062	1
0	2579	263.830545002062	0
0	2595	265.334783341997	1
0	2612	266.834783341997	0
0	2628	268.403758092908	1
0	2640	269.903758092908	0
0	2646	270.153904925976	1
0	2647	270.153904925976	2
0	2656	271.403758092908	1
0	2670	272.903758092908	0
0	2676	273.254038207871	1
0	2677	273.254038207871	2
0	2694	274.403758092908	1
0	2708	275.903758092908	0
0	2717	276.45934998882	1
0	2718	276.45934998882	2
0	2725	277.403758092908	1
0	2739	278.903758092908	0
0	2745	279.099120429452	1
0	2746	279.099120429452	2
0	2750	280.403758092908	1
0	2761	281.903758092908	0
0	2767	282.149649724175	1
0	2768	282.149649724175	2
0	2782	283.403758092908	1
0	2796	284.903758092908	0
0	2815	286.465192974508	1
0	2827	287.965192974508	0
0	2833	288.327357562303	1
0	2834	288.327357562303	2
0	2838	289.465192974508	1
0	2854	290.965192974508	0
0	2863	292.062389188316	1
0	2864	292.062389188316	2
0	2868	292.465192974508	1
0	2882	293.965192974508	0
0	2888	294.804854225583	1
0	2889	294.804854225583	2
0	2893	295.465192974508	1
0	2909	296.965192974508	0
0	2915	297.411617930484	1
0	2916	297.411617930484	2
0	2928	298.465192974508	1
0	2942	299.965192974508	0
0	2951	300.997959406536	1
0	2952	300.997959406536	2
0	2956	301.465192974508	1
0	2975	302.965192974508	0
0	2981	303.831774896946	1
0	2982	303.831774896946	2
0	2989	304.465192974508	1
0	3008	305.965192974508	0
0	3020	307.439782696575	1
0	3021	307.439782696575	2
0	3022	307.465192974508	1
0	3031	308.965192974508	0
0	3037	309.202947951987	1
0	3038	309.202947951987	2
0	3039	310.465192974508	1
0	3047	311.965192974508	0
0	3053	312.439585526776	1
0	3054	312.439585526776	2
0	3063	313.465192974508	1
0	3069	314.965192974508	0
0	3075	314.989272518092	1
0	3076	314.989272518092	2
0	3085	316.465192974508	1
0	3101	317.965192974508	0
0	3107	317.973667466611	1
0	3108	317.973667466611	2
0	3128	319.465192974508	1
0	3150	320.965192974508	0
0	3162	322.165081327902	1
0	3163	322.165081327902	2
0	3170	322.465192974508	1
0	3190	323.965192974508	0
0	3196	324.597661899836	1
0	3197	324.597661899836	2
0	3201	325.465192974508	1
0	3217	326.965192974508	0
0	3223	327.928058046783	1
0	3224	327.928058046783	2
0	3231	328.465192974508	1
0	3255	329.965192974508	0
0	3264	331.148382860636	1
0	3265	331.148382860636	2
0	3272	331.465192974508	1
0	3289	332.965192974508	0
0	3295	333.440375314059	1
0	3296	333.440375314059	2
0	3300	334.465192974508	1
0	3311	335.965192974508	0
0	3317	336.501681749183	1
0	3318	336.501681749183	2
0	3322	337.465192974508	1
0	3333	338.965192974508	0
0	3339	339.815987819521	1
0	3340	339.815987819521	2
0	3344	340.465192974508	1
0	3360	341.965192974508	0
0	3366	342.413970064249	1
0	3367	342.413970064249	2
0	3379	343.465192974508	1
0	3393	344.965192974508	0
0	3399	345.296487639524	1
0	3400	345.296487639524	2
0	3407	346.465192974508	1
0	3431	347.965192974508	0
0	3440	348.663743746575	1
0	3441	348.663743746575	2
0	3448	349.465192974508	1
0	3470	350.965192974508	0
0	3476	350.987872918103	1
0	3477	350.987872918103	2
0	3494	352.465192974508	1
0	3514	353.965192974508	0
0	3520	354.126546372625	1
0	3521	354.126546372625	2
0	3536	355.465192974508	1
0	3550	356.965192974508	0
0	3556	357.045327764184	1
0	3557	357.045327764184	2
0	3564	358.465192974508	1
0	3575	359.965192974508	0
0	3581	360.840353230788	1
0	3582	360.840353230788	2
0	3591	361.465192974508	1
0	3602	362.965192974508	0
0	3608	363.428098392002	1
0	3609	363.428098392002	2
0	3616	364.465192974508	1
0	3635	365.965192974508	0
0	3641	366.247217966869	1
0	3642	366.247217966869	2
0	3649	367.465192974508	1
0	3663	368.965192974508	0
0	3669	368.997952993837	1
0	3670	368.997952993837	2
0	3679	370.465192974508	1
0	3690	371.965192974508	0
0	3696	372.201136100152	1
0	3697	372.201136100152	2
0	3709	373.465192974508	1
0	3723	374.965192974508	0
0	3735	376.058573590848	1
0	3736	376.058573590848	2
0	3737	376.465192974508	1
0	3751	377.965192974508	0
0	3764	379.877001792352	1
0	3773	381.377001792352	0
0	3779	381.954162390671	1
0	3780	381.954162390671	2
0	3784	382.877001792352	1
0	3795	384.377001792352	0
0	3801	384.879506678728	1
0	3802	384.879506678728	2
0	3806	385.877001792352	1
0	3822	387.377001792352	0
0	3828	388.051514763281	1
0	3829	388.051514763281	2
0	3836	388.877001792352	1
0	3850	390.377001792352	0
0	3856	391.047089151996	1
0	3857	391.047089151996	2
0	3861	391.877001792352	1
0	3877	393.377001792352	0
0	3886	394.153375985226	1
0	3887	394.153375985226	2
0	3891	394.877001792352	1
0	3910	396.377001792352	0
0	3916	397.499688274101	1
0	3917	397.499688274101	2
0	3924	397.877001792352	1
0	3933	399.377001792352	0
0	3939	399.668539423483	1
0	3940	399.668539423483	2
0	3941	400.877001792352	1
0	3949	402.377001792352	0
0	3958	403.092567322671	1
0	3959	403.092567322671	2
0	3960	403.877001792352	1
0	3976	405.377001792352	0
0	3992	407.138528152307	1
0	3999	408.638528152307	0
0	4005	409.047610070172	1
0	4006	409.047610070172	2
0	4007	410.138528152307	1
0	4015	411.638528152307	0
0	4021	412.237025593583	1
0	4022	412.237025593583	2
0	4031	413.138528152307	1
0	4047	414.638528152307	0
0	4056	415.197073881809	1
0	4057	415.197073881809	2
0	4069	416.138528152307	1
0	4086	417.638528152307	0
0	4095	418.631871355002	1
0	4096	418.631871355002	2
0	4100	419.138528152307	1
0	4114	420.638528152307	0
0	4120	421.066019970905	1
0	4121	421.066019970905	2
0	4135	422.138528152307	1
0	4154	423.638528152307	0
0	4160	423.745674875737	1
0	4161	423.745674875737	2
0	4176	425.138528152307	1
0	4203	426.638528152307	0
0	4209	426.738493078949	1
0	4210	426.738493078949	2
0	4233	428.138528152307	1
0	4253	429.638528152307	0
0	4265	430.339340627914	1
0	4266	430.339340627914	2
0	4270	431.138528152307	1
0	4287	432.638528152307	0
0	4293	432.919441823278	1
0	4294	432.919441823278	2
0	4301	434.138528152307	1
0	4317	435.638528152307	0
0	4323	436.328806363691	1
0	4324	436.328806363691	2
0	4331	437.138528152307	1
0	4345	438.638528152307	0
0	4351	438.782680928701	1
0	4352	438.782680928701	2
0	4361	440.138528152307	1
0	4372	441.638528152307	0
0	4378	442.348173756002	1
0	4379	442.348173756002	2
0	4391	443.138528152307	1
0	4400	444.638528152307	0
0	4406	444.997524507823	1
0	4407	444.997524507823	2
0	4416	446.138528152307	1
0	4432	447.638528152307	0
0	4451	449.223063528445	1
0	4461	450.723063528445	0
0	4467	450.834289903267	1
0	4468	450.834289903267	2
0	4469	452.223063528445	1
0	4477	453.723063528445	0
0	4483	454.107462465431	1
0	4484	454.107462465431	2
0	4488	455.223063528445	1
0	4504	456.723063528445	0
0	4510	457.395925203069	1
0	4511	457.395925203069	2
0	4523	458.223063528445	1
0	4537	459.723063528445	0
0	4543	460.613246815738	1
0	4544	460.613246815738	2
0	4556	461.223063528445	1
0	4570	462.723063528445	0
0	4576	463.420442286101	1
0	4577	463.420442286101	2
0	4584	464.223063528445	1
0	4598	465.723063528445	0
0	4604	466.302112533909	1
0	4605	466.302112533909	2
0	4609	467.223063528445	1
0	4630	468.723063528445	0
0	4649	470.445376424792	1
0	4664	471.945376424792	0
0	4670	472.237828596111	1
0	4671	472.237828596111	2
0	4680	473.445376424792	1
0	4686	474.945376424792	0
0	4692	475.084215374836	1
0	4693	475.084215374836	2
0	4702	476.445376424792	1
0	4716	477.945376424792	0
0	4722	478.199074012208	1
0	4723	478.199074012208	2
0	4735	479.445376424792	1
0	4746	480.945376424792	0
0	4762	482.526969827253	1
0	4779	484.026969827253	0
0	4795	485.552775460773	1
0	4807	487.052775460773	0
0	4813	487.092873074385	1
0	4814	487.092873074385	2
0	4823	488.552775460773	1
0	4832	490.052775460773	0
0	4838	490.684696730464	1
0	4839	490.684696730464	2
0	4843	491.552775460773	1
0	4861	493.052775460773	0
0	4883	494.883062813004	1
0	4890	496.383062813004	0
0	4896	497.189111151467	1
0	4897	497.189111151467	2
0	4903	497.883062813004	1
0	4919	499.383062813004	0
0	4925	499.559057805478	1
0	4926	499.559057805478	2
0	4938	500.883062813004	1
0	4952	502.383062813004	0
0	4958	502.998981130347	1
0	4959	502.998981130347	2
0	4966	503.883062813004	1
0	4980	505.383062813004	0
0	4989	506.395941618163	1
0	4990	506.395941618163	2
0	4994	506.883062813004	1
0	5005	508.383062813004	0
0	5011	509.214416250735	1
0	5012	509.214416250735	2
0	5016	509.883062813004	1
0	5032	511.383062813004	0
0	5038	511.914824253884	1
0	5039	511.914824253884	2
0	5056	512.883062813004	1
0	5073	514.383062813004	0
0	5085	515.379341574883	1
0	5086	515.379341574883	2
0	5090	515.883062813004	1
0	5104	517.383062813004	0
0	5110	517.945300775053	1
0	5111	517.945300775053	2
0	5115	518.883062813004	1
0	5126	520.383062813004	0
0	5132	521.132870483538	1
0	5133	521.132870483538	2
0	5137	521.883062813004	1
0	5153	523.383062813004	0
0	5159	523.868460108894	1
0	5160	523.868460108894	2
0	5167	524.883062813004	1
0	5186	526.383062813004	0
0	5192	527.102720068058	1
0	5193	527.102720068058	2
0	5205	527.883062813004	1
0	5232	529.383062813004	0
0	5238	530.194596791875	1
0	5239	530.194596791875	2
0	5249	530.883062813004	1
0	5266	532.383062813004	0
0	5272	533.067435767407	1
0	5273	533.067435767407	2
0	5285	533.883062813004	1
0	5299	535.383062813004	0
0	5305	536.443649705933	1
0	5306	536.443649705933	2
0	5313	536.883062813004	1
0	5329	538.383062813004	0
0	5335	539.261562682323	1
0	5336	539.261562682323	2
0	5343	539.883062813004	1
0	5357	541.383062813004	0
0	5363	542.278446060126	1
0	5364	542.278446060126	2
0	5368	542.883062813004	1
0	5384	544.383062813004	0
0	5390	544.870379842642	1
0	5391	544.870379842642	2
0	5398	545.883062813004	1
0	5412	547.383062813004	0
0	5418	548.190338340255	1
0	5419	548.190338340255	2
0	5423	548.883062813004	1
0	5434	550.383062813004	0
0	5440	550.779113241936	1
0	5441	550.779113241936	2
0	5445	551.883062813004	1
0	5461	553.383062813004	0
0	5467	553.95299711006	1
0	5468	553.95299711006	2
0	5475	554.883062813004	1
0	5489	556.383062813004	0
0	5495	556.768989189153	1
0	5496	556.768989189153	2
0	5510	557.883062813004	1
0	5524	559.383062813004	0
0	5530	559.978456177069	1
0	5531	559.978456177069	2
0	5541	560.883062813004	1
0	5555	562.383062813004	0
0	5564	563.806383801544	1
0	5565	563.806383801544	2
0	5566	563.883062813004	1
0	5577	565.383062813004	0
0	5583	565.827415171448	1
0	5584	565.827415171448	2
0	5588	566.883062813004	1
0	5604	568.383062813004	0
0	5610	569.070814147373	1
0	5611	569.070814147373	2
0	5628	569.883062813004	1
0	5645	571.383062813004	0
0	5651	571.599728366606	1
0	5652	571.599728366606	2
0	5667	572.883062813004	1
0	5686	574.383062813004	0
0	5692	575.074283899274	1
0	5693	575.074283899274	2
0	5703	575.883062813004	1
0	5720	577.383062813004	0
0	5726	578.530282495487	1
0	5727	578.530282495487	2
0	5731	578.883062813004	1
0	5742	580.383062813004	0
0	5748	580.766697794808	1
0	5749	580.766697794808	2
0	5753	581.883062813004	1
0	5769	583.383062813004	0
0	5775	583.570137966338	1
0	5776	583.570137966338	2
0	5783	584.883062813004	1
0	5797	586.383062813004	0
0	5803	586.767163525729	1
0	5804	586.767163525729	2
0	5808	587.883062813004	1
0	5824	589.383062813004	0
0	5830	589.905306497752	1
0	5831	589.905306497752	2
0	5843	590.883062813004	1
0	5857	592.383062813004	0
0	5869	593.800614799278	1
0	5870	593.800614799278	2
0	5871	593.883062813004	1
0	5880	595.383062813004	0
0	5886	595.665727608114	1
0	5887	595.665727608114	2
0	5893	596.883062813004	1
0	5899	598.383062813004	0
0	5905	599.085585301992	1
0	5906	599.085585301992	2
0	5910	599.883062813004	1
0	5923	601.383062813004	0
0	5932	602.290925259268	1
0	5933	602.290925259268	2
0	5937	602.883062813004	1
0	5956	604.383062813004	0
0	5962	604.775874374164	1
0	5963	604.775874374164	2
0	5970	605.883062813004	1
0	5984	607.383062813004	0
0	5990	607.694480606928	1
0	5991	607.694480606928	2
0	5995	608.883062813004	1
0	6016	610.383062813004	0
0	6028	611.648412646985	1
0	6029	611.648412646985	2
0	6033	611.883062813004	1
0	6050	613.383062813004	0
0	6063	615.132942895388	1
0	6072	616.632942895388	0
0	6078	617.656840633504	1
0	6079	617.656840633504	2
0	6083	618.132942895388	1
0	6099	619.632942895388	0
0	6105	620.080504997476	1
0	6106	620.080504997476	2
0	6123	621.132942895388	1
0	6145	622.632942895388	0
0	6154	623.307114488929	1
0	6155	623.307114488929	2
0	6167	624.132942895388	1
0	6184	625.632942895388	0
0	6190	625.794437913108	1
0	6191	625.794437913108	2
0	6206	627.132942895388	1
0	6228	628.632942895388	0
0	6234	628.7658209807	1
0	6235	628.7658209807	2
0	6255	630.132942895388	1
0	6272	631.632942895388	0
0	6281	632.911195451966	1
0	6282	632.911195451966	2
0	6289	633.132942895388	1
0	6303	634.632942895388	0
0	6309	634.991404794142	1
0	6310	634.991404794142	2
0	6314	636.132942895388	1
0	6325	637.632942895388	0
0	6331	637.674700326039	1
0	6332	637.674700326039	2
0	6341	639.132942895388	1
0	6355	640.632942895388	0
0	6361	641.292888913213	1
0	6362	641.292888913213	2
0	6374	642.132942895388	1
0	6385	643.632942895388	0
0	6391	643.87050589051	1
0	6392	643.87050589051	2
0	6399	645.132942895388	1
0	6418	646.632942895388	0
0	6424	647.497722677724	1
0	6425	647.497722677724	2
0	6432	648.132942895388	1
0	6446	649.632942895388	0
0	6452	650.307250442159	1
0	6453	650.307250442159	2
0	6462	651.132942895388	1
0	6468	652.632942895388	0
0	6474	653.042255350385	1
0	6475	653.042255350385	2
0	6479	654.132942895388	1
0	6495	655.632942895388	0
0	6511	657.212941556474	1
0	6523	658.712941556474	0
0	6529	658.775405119147	1
0	6530	658.775405119147	2
0	6544	660.212941556474	1
0	6566	661.712941556474	0
0	6575	662.487309877439	1
0	6576	662.487309877439	2
0	6583	663.212941556474	1
0	6597	664.712941556474	0
0	6606	665.475041875174	1
0	6607	665.475041875174	2
0	6611	666.212941556474	1
0	6622	667.712941556474	0
0	6628	667.839121258694	1
0	6629	667.839121258694	2
0	6643	669.212941556474	1
0	6657	670.712941556474	0
0	6663	671.18758259212	1
0	6664	671.18758259212	2
0	6679	672.212941556474	1
0	6696	673.712941556474	0
0	6702	674.371435068239	1
0	6703	674.371435068239	2
0	6715	675.212941556474	1
0	6721	676.712941556474	0
0	6727	676.88880267104	1
0	6728	676.88880267104	2
0	6737	678.212941556474	1
0	6743	679.712941556474	0
0	6749	679.976042454237	1
0	6750	679.976042454237	2
0	6754	681.212941556474	1
0	6765	682.712941556474	0
0	6771	682.920345559917	1
0	6772	682.920345559917	2
0	6781	684.212941556474	1
0	6795	685.712941556474	0
0	6801	686.041334773992	1
0	6802	686.041334773992	2
0	6814	687.212941556474	1
0	6830	688.712941556474	0
0	6836	689.021554414334	1
0	6837	689.021554414334	2
0	6847	690.212941556474	1
0	6864	691.712941556474	0
0	6870	691.936593359175	1
0	6871	691.936593359175	2
0	6880	693.212941556474	1
0	6899	694.712941556474	0
0	6905	695.691961040603	1
0	6906	695.691961040603	2
0	6913	696.212941556474	1
0	6927	697.712941556474	0
0	6933	698.713802140413	1
0	6934	698.713802140413	2
0	6941	699.212941556474	1
0	6957	700.712941556474	0
0	6966	701.771101822206	1
0	6967	701.771101822206	2
0	6971	702.212941556474	1
0	6985	703.712941556474	0
0	6991	704.104376095962	1
0	6992	704.104376095962	2
0	6996	705.212941556474	1
0	7007	706.712941556474	0
0	7013	707.221705793288	1
0	7014	707.221705793288	2
0	7028	708.212941556474	1
0	7047	709.712941556474	0
0	7059	710.395667302095	1
0	7060	710.395667302095	2
0	7064	711.212941556474	1
0	7091	712.712941556474	0
0	7100	713.845487265541	1
0	7101	713.845487265541	2
0	7113	714.212941556474	1
0	7133	715.712941556474	0
0	7139	715.750327684042	1
0	7140	715.750327684042	2
0	7160	717.212941556474	1
0	7172	718.712941556474	0
0	7178	719.021820501757	1
0	7179	719.021820501757	2
0	7186	720.212941556474	1
0	7194	721.712941556474	0
0	7200	722.059017782833	1
0	7201	722.059017782833	2
0	7205	723.212941556474	1
0	7216	724.712941556474	0
0	7222	724.927806988475	1
0	7223	724.927806988475	2
0	7227	726.212941556474	1
0	7238	727.712941556474	0
0	7244	728.206656742162	1
0	7245	728.206656742162	2
0	7254	729.212941556474	1
0	7270	730.712941556474	0
0	7282	731.831837179315	1
0	7283	731.831837179315	2
0	7287	732.212941556474	1
0	7304	733.712941556474	0
0	7310	734.619891306802	1
0	7311	734.619891306802	2
0	7315	735.212941556474	1
0	7326	736.712941556474	0
0	7332	737.192591018189	1
0	7333	737.192591018189	2
0	7342	738.212941556474	1
0	7348	739.712941556474	0
0	7354	740.648950670552	1
0	7355	740.648950670552	2
0	7359	741.212941556474	1
0	7365	742.712941556474	0
0	7371	742.725716715441	1
0	7372	742.725716715441	2
0	7378	744.212941556474	1
0	7389	745.712941556474	0
0	7398	746.716053789407	1
0	7399	746.716053789407	2
0	7403	747.212941556474	1
0	7414	748.712941556474	0
0	7423	749.917382284254	1
0	7424	749.917382284254	2
0	7425	750.212941556474	1
0	7431	751.712941556474	0
0	7437	751.777733865884	1
0	7438	751.777733865884	2
0	7439	753.212941556474	1
0	7447	754.712941556474	0
0	7453	755.495408001367	1
0	7454	755.495408001367	2
0	7463	756.212941556474	1
0	7474	757.712941556474	0
0	7480	758.161193468666	1
0	7481	758.161193468666	2
0	7493	759.212941556474	1
0	7507	760.712941556474	0
0	7513	761.073209804629	1
0	7514	761.073209804629	2
0	7521	762.212941556474	1
0	7540	763.712941556474	0
0	7546	763.992068780342	1
0	7547	763.992068780342	2
0	7559	765.212941556474	1
0	7573	766.712941556474	0
0	7579	766.834835269849	1
0	7580	766.834835269849	2
0	7592	768.212941556474	1
0	7606	769.712941556474	0
0	7618	770.85091194997	1
0	7619	770.85091194997	2
0	7620	771.212941556474	1
0	7639	772.712941556474	0
0	7648	773.718937819556	1
0	7649	773.718937819556	2
0	7653	774.212941556474	1
0	7662	775.712941556474	0
0	7668	776.122369199117	1
0	7669	776.122369199117	2
0	7680	777.212941556474	1
0	7694	778.712941556474	0
0	7700	778.810105420885	1
0	7701	778.810105420885	2
0	7716	780.212941556474	1
0	7730	781.712941556474	0
0	7743	783.574496537556	1
0	7752	785.074496537556	0
0	7764	785.803757246496	1
0	7765	785.803757246496	2
0	7766	786.574496537556	1
0	7787	788.074496537556	0
0	7799	788.468789223061	1
0	7800	788.468789223061	2
0	7804	789.574496537556	1
0	7821	791.074496537556	0
0	7827	791.095017334993	1
0	7828	791.095017334993	2
0	7832	792.574496537556	1
0	7848	794.074496537556	0
0	7857	794.977381478436	1
0	7858	794.977381478436	2
0	7867	795.574496537556	1
0	7881	797.074496537556	0
0	7887	797.137487436278	1
0	7888	797.137487436278	2
0	7895	798.574496537556	1
0	7914	800.074496537556	0
0	7920	800.155437652413	1
0	7921	800.155437652413	2
0	7943	801.574496537556	1
0	7968	803.074496537556	0
0	7974	803.707127090213	1
0	7975	803.707127090213	2
0	7993	804.574496537556	1
0	8018	806.074496537556	0
0	8024	806.248836887763	1
0	8025	806.248836887763	2
0	8043	807.574496537556	1
0	8057	809.074496537556	0
0	8063	809.336297102256	1
0	8064	809.336297102256	2
0	8076	810.574496537556	1
0	8088	812.074496537556	0
0	8094	812.675270190784	1
0	8095	812.675270190784	2
0	8104	813.574496537556	1
0	8125	815.074496537556	0
0	8134	815.946380730064	1
0	8135	815.946380730064	2
0	8142	816.574496537556	1
0	8164	818.074496537556	0
0	8176	819.191646815977	1
0	8177	819.191646815977	2
0	8178	819.574496537556	1
0	8192	821.074496537556	0
0	8198	821.524952427342	1
0	8199	821.524952427342	2
0	8211	822.574496537556	1
0	8225	824.074496537556	0
0	8231	825.140555241276	1
0	8232	825.140555241276	2
0	8244	825.574496537556	1
0	8258	827.074496537556	0
0	8264	827.079217289682	1
0	8265	827.079217289682	2
0	8277	828.574496537556	1
0	8296	830.074496537556	0
0	8305	831.053998110932	1
0	8306	831.053998110932	2
0	8313	831.574496537556	1
0	8332	833.074496537556	0
0	8341	833.987150871939	1
0	8342	833.987150871939	2
0	8351	834.574496537556	1
0	8370	836.074496537556	0
0	8376	836.40961374801	1
0	8377	836.40961374801	2
0	8387	837.574496537556	1
0	8404	839.074496537556	0
0	8410	839.452961585256	1
0	8411	839.452961585256	2
0	8420	840.574496537556	1
0	8431	842.074496537556	0
0	8437	842.177433946258	1
0	8438	842.177433946258	2
0	8445	843.574496537556	1
0	8459	845.074496537556	0
0	8465	845.436399951043	1
0	8466	845.436399951043	2
0	8475	846.574496537556	1
0	8486	848.074496537556	0
0	8505	850.413381436931	1
0	8514	851.913381436931	0
0	8523	853.264350897308	1
0	8524	853.264350897308	2
0	8525	853.413381436931	1
0	8536	854.913381436931	0
0	8542	855.125726387713	1
0	8543	855.125726387713	2
0	8552	856.413381436931	1
0	8563	857.913381436931	0
0	8572	858.302048515918	1
0	8573	858.302048515918	2
0	8577	859.413381436931	1
0	8591	860.913381436931	0
0	8597	861.524419282212	1
0	8598	861.524419282212	2
0	8607	862.413381436931	1
0	8618	863.913381436931	0
0	8630	865.395820817584	1