version 3
run k_MM1_lbqf-15-20221127-16:03:35-25264
attr configname k_MM1_lbqf
attr datetime 20221127-16:03:35
attr datetimef 20221127-160335
attr experiment k_MM1_lbqf
attr inifile omnetpp.ini
attr iterationvars "$time=1.5, $num=5, $0=33434, $1=56673, $2=23567"
attr iterationvarsd time=1.5/num=5/33434/56673/23567
attr iterationvarsf time=1.5,num=5,33434,56673,23567-
attr measurement "$time=1.5, $num=5, $0=33434, $1=56673, $2=23567"
attr network lbqfkMM1
attr processid 25264
attr repetition 3
attr replication #3
attr resultdir results
attr runnumber 15
attr seedset 15
itervar num 5
itervar time 1.5
config description "MM1 module k-times lbqf"
config network lbqfkMM1
config **.interArrivalTime "truncnormal(uniform(0.5s, 1.5s), uniform(0.25s, 0.75s))"
config **.serviceTime 1.5s
config **.c 5
config **.capacity 10000
config record-eventlog false
config **.scalar-recording true
config **.vector-recording true
config repeat 4
config seed-1-mt 33434
config seed-2-mt 56673
config seed-3-mt 23567
config output-vector-file k_MM1_lbqf-5-1.5-results/3.vec
config output-scalar-file k_MM1_lbqf-5-1.5-results/3.sca

vector 0 lbqfkMM1.mm1[0] queueLength:vector ETV
attr interpolationmode none
attr recordingmode vector
attr title "queue length"
vector 1 lbqfkMM1.mm1[1] queueLength:vector ETV
attr interpolationmode none
attr recordingmode vector
attr title "queue length"
vector 2 lbqfkMM1.mm1[0] util:vector ETV
attr interpolationmode none
attr recordingmode vector
attr title resources
vector 3 lbqfkMM1.mm1[1] util:vector ETV
attr interpolationmode none
attr recordingmode vector
attr title resources
vector 4 lbqfkMM1.mm1[2] queueLength:vector ETV
attr interpolationmode none
attr recordingmode vector
attr title "queue length"
vector 5 lbqfkMM1.mm1[2] util:vector ETV
attr interpolationmode none
attr recordingmode vector
attr title resources
vector 6 lbqfkMM1.mm1[3] queueLength:vector ETV
attr interpolationmode none
attr recordingmode vector
attr title "queue length"
vector 7 lbqfkMM1.mm1[4] queueLength:vector ETV
attr interpolationmode none
attr recordingmode vector
attr title "queue length"
vector 8 lbqfkMM1.mm1[3] util:vector ETV
attr interpolationmode none
attr recordingmode vector
attr title resources
vector 9 lbqfkMM1.mm1[4] util:vector ETV
attr interpolationmode none
attr recordingmode vector
attr title resources
0	5	10	1
0	11	11.5	0
0	17	11.677825962692	1
0	18	11.677825962692	2
0	22	13	1
0	38	14.5	0
0	44	14.818681379514	1
0	45	14.818681379514	2
0	52	16	1
0	66	17.5	0
0	72	18.293471138129	1
0	73	18.293471138129	2
0	77	19	1
0	93	20.5	0
0	99	20.859921378514	1
0	100	20.859921378514	2
0	107	22	1
0	121	23.5	0
0	127	23.905945551605	1
0	128	23.905945551605	2
0	132	25	1
0	158	26.5	0
0	176	27.82746452714	1
0	177	27.82746452714	2
0	178	28	1
0	198	29.5	0
0	204	29.953269669397	1
0	205	29.953269669397	2
0	209	31	1
0	225	32.5	0
0	231	32.592136456927	1
0	232	32.592136456927	2
0	249	34	1
0	266	35.5	0
0	278	36.70113983949	1
0	279	36.70113983949	2
0	283	37	1
0	297	38.5	0
0	303	39.779457647634	1
0	304	39.779457647634	2
0	308	40	1
0	324	41.5	0
0	330	42.46708871618	1
0	331	42.46708871618	2
0	338	43	1
0	357	44.5	0
0	363	44.738880201696	1
0	364	44.738880201696	2
0	371	46	1
0	390	47.5	0
0	406	49.521069521788	1
0	418	51.021069521788	0
0	424	51.366582084968	1
0	425	51.366582084968	2
0	434	52.521069521788	1
0	445	54.021069521788	0
0	451	54.514592807328	1
0	452	54.514592807328	2
0	464	55.521069521788	1
0	473	57.021069521788	0
0	479	57.200729453477	1
0	480	57.200729453477	2
0	489	58.521069521788	1
0	503	60.021069521788	0
0	515	61.249470704541	1
0	516	61.249470704541	2
0	517	61.521069521788	1
0	533	63.021069521788	0
0	539	63.645236638348	1
0	540	63.645236638348	2
0	547	64.521069521788	1
0	561	66.021069521788	0
0	567	66.759294770624	1
0	568	66.759294770624	2
0	572	67.521069521788	1
0	583	69.021069521788	0
0	589	69.179207147626	1
0	590	69.179207147626	2
0	594	70.521069521788	1
0	605	72.021069521788	0
0	611	72.164253772921	1
0	612	72.164253772921	2
0	621	73.521069521788	1
0	640	75.021069521788	0
0	659	77.260613143058	1
0	666	78.760613143058	0
0	672	79.060303061282	1
0	673	79.060303061282	2
0	684	80.260613143058	1
0	693	81.760613143058	0
0	699	82.262674962531	1
0	700	82.262674962531	2
0	712	83.260613143058	1
0	723	84.760613143058	0
0	729	85.225414776445	1
0	730	85.225414776445	2
0	742	86.260613143058	1
0	761	87.760613143058	0
0	770	88.668197228757	1
0	771	88.668197228757	2
0	775	89.260613143058	1
0	794	90.760613143058	0
0	800	91.071251189357	1
0	801	91.071251189357	2
0	808	92.260613143058	1
0	822	93.760613143058	0
0	834	94.805576592243	1
0	835	94.805576592243	2
0	836	95.260613143058	1
0	852	96.760613143058	0
0	864	97.888272720883	1
0	865	97.888272720883	2
0	866	98.260613143058	1
0	880	99.760613143058	0
0	886	99.835179453511	1
0	887	99.835179453511	2
0	896	101.260613143058	1
0	915	102.760613143058	0
0	924	103.796758566479	1
0	925	103.796758566479	2
0	929	104.260613143058	1
0	938	105.760613143058	0
0	944	106.022078431731	1
0	945	106.022078431731	2
0	954	107.260613143058	1
0	970	108.760613143058	0
0	979	109.25632508643	1
0	980	109.25632508643	2
0	994	110.260613143058	1
0	1011	111.760613143058	0
0	1017	111.868778016458	1
0	1018	111.868778016458	2
0	1036	113.260613143058	1
0	1053	114.760613143058	0
0	1059	114.798293652613	1
0	1060	114.798293652613	2
0	1067	116.260613143058	1
0	1078	117.760613143058	0
0	1084	118.14270011932	1
0	1085	118.14270011932	2
0	1094	119.260613143058	1
0	1110	120.760613143058	0
0	1122	121.494568130602	1
0	1123	121.494568130602	2
0	1127	122.260613143058	1
0	1149	123.760613143058	0
0	1158	124.503139330815	1
0	1159	124.503139330815	2
0	1168	125.260613143058	1
0	1187	126.760613143058	0
0	1196	127.884479682018	1
0	1197	127.884479682018	2
0	1204	128.260613143058	1
0	1221	129.760613143058	0
0	1227	130.338436383085	1
0	1228	130.338436383085	2
0	1232	131.260613143058	1
0	1243	132.760613143058	0
0	1249	132.805029779423	1
0	1250	132.805029779423	2
0	1254	134.260613143058	1
0	1275	135.760613143058	0
0	1284	136.774218575946	1
0	1285	136.774218575946	2
0	1292	137.260613143058	1
0	1304	138.760613143058	0
0	1310	138.970146820029	1
0	1311	138.970146820029	2
0	1312	140.260613143058	1
0	1325	141.760613143058	0
0	1331	141.938532426561	1
0	1332	141.938532426561	2
0	1349	143.260613143058	1
0	1366	144.760613143058	0
0	1372	144.979220077537	1
0	1373	144.979220077537	2
0	1388	146.260613143058	1
0	1402	147.760613143058	0
0	1411	148.311788665297	1
0	1412	148.311788665297	2
0	1416	149.260613143058	1
0	1435	150.760613143058	0
0	1441	151.468386510719	1
0	1442	151.468386510719	2
0	1449	152.260613143058	1
0	1468	153.760613143058	0
0	1474	154.264475119454	1
0	1475	154.264475119454	2
0	1482	155.260613143058	1
0	1501	156.760613143058	0
0	1507	157.424024457049	1
0	1508	157.424024457049	2
0	1515	158.260613143058	1
0	1524	159.760613143058	0
0	1530	160.043522048655	1
0	1531	160.043522048655	2
0	1547	161.260613143058	1
0	1569	162.760613143058	0
0	1578	163.689917138138	1
0	1579	163.689917138138	2
0	1589	164.260613143058	1
0	1608	165.760613143058	0
0	1617	166.208650005165	1
0	1618	166.208650005165	2
0	1627	167.260613143058	1
0	1636	168.760613143058	0
0	1645	169.785311857918	1
0	1646	169.785311857918	2
0	1650	170.260613143058	1
0	1666	171.760613143058	0
0	1675	172.22674649681	1
0	1676	172.22674649681	2
0	1680	173.260613143058	1
0	1694	174.760613143058	0
0	1703	175.413929184004	1
0	1704	175.413929184004	2
0	1705	176.260613143058	1
0	1721	177.760613143058	0
0	1727	177.923653876273	1
0	1728	177.923653876273	2
0	1740	179.260613143058	1
0	1759	180.760613143058	0
0	1768	181.401355886587	1
0	1769	181.401355886587	2
0	1776	182.260613143058	1
0	1793	183.760613143058	0
0	1799	183.966379067814	1
0	1800	183.966379067814	2
0	1809	185.260613143058	1
0	1830	186.760613143058	0
0	1845	187.779586872415	1
0	1846	187.779586872415	2
0	1850	188.260613143058	1
0	1870	189.760613143058	0
0	1879	190.280759997705	1
0	1880	190.280759997705	2
0	1886	191.260613143058	1
0	1897	192.760613143058	0
0	1903	192.78648860639	1
0	1904	192.78648860639	2
0	1916	194.260613143058	1
0	1930	195.760613143058	0
0	1942	197.114766520694	1
0	1943	197.114766520694	2
0	1944	197.260613143058	1
0	1958	198.760613143058	0
0	1964	199.596370465744	1
0	1965	199.596370465744	2
0	1969	200.260613143058	1
0	1980	201.760613143058	0
0	1986	202.026405808736	1
0	1987	202.026405808736	2
0	1991	203.260613143058	1
0	2007	204.760613143058	0
0	2013	204.765617821143	1
0	2014	204.765617821143	2
0	2031	206.260613143058	1
0	2048	207.760613143058	0
0	2060	208.570166658244	1
0	2061	208.570166658244	2
0	2065	209.260613143058	1
0	2084	210.760613143058	0
0	2090	210.93297393797	1
0	2091	210.93297393797	2
0	2103	212.260613143058	1
0	2120	213.760613143058	0
0	2129	214.465870612034	1
0	2130	214.465870612034	2
0	2139	215.260613143058	1
0	2153	216.760613143058	0
0	2159	217.264342020158	1
0	2160	217.264342020158	2
0	2172	218.260613143058	1
0	2186	219.760613143058	0
0	2192	220.269945421807	1
0	2193	220.269945421807	2
0	2210	221.260613143058	1
0	2224	222.760613143058	0
0	2230	223.690644300125	1
0	2231	223.690644300125	2
0	2241	224.260613143058	1
0	2260	225.760613143058	0
0	2266	226.457325821103	1
0	2267	226.457325821103	2
0	2274	227.260613143058	1
0	2293	228.760613143058	0
0	2309	230.418040760011	1
0	2321	231.918040760011	0
0	2327	232.873784668138	1
0	2328	232.873784668138	2
0	2332	233.418040760011	1
0	2348	234.918040760011	0
0	2354	235.680356456159	1
0	2355	235.680356456159	2
0	2362	236.418040760011	1
0	2371	237.918040760011	0
0	2377	238.195409407825	1
0	2378	238.195409407825	2
0	2389	239.418040760011	1
0	2403	240.918040760011	0
0	2409	241.477447716184	1
0	2410	241.477447716184	2
0	2422	242.418040760011	1
0	2441	243.918040760011	0
0	2456	245.057673181808	1
0	2457	245.057673181808	2
0	2461	245.418040760011	1
0	2470	246.918040760011	0
0	2476	247.025828851682	1
0	2477	247.025828851682	2
0	2483	248.418040760011	1
0	2494	249.918040760011	0
0	2503	251.031281616972	1
0	2504	251.031281616972	2
0	2508	251.418040760011	1
0	2519	252.918040760011	0
0	2525	253.301681608266	1
0	2526	253.301681608266	2
0	2535	254.418040760011	1
0	2546	255.918040760011	0
0	2555	256.79491358809	1
0	2556	256.79491358809	2
0	2560	257.418040760011	1
0	2584	258.918040760011	0
0	2590	259.688240393404	1
0	2591	259.688240393404	2
0	2606	260.418040760011	1
0	2628	261.918040760011	0
0	2640	263.2006579823	1
0	2641	263.2006579823	2
0	2645	263.418040760011	1
0	2667	264.918040760011	0
0	2676	266.100853692132	1
0	2677	266.100853692132	2
0	2681	266.418040760011	1
0	2695	267.918040760011	0
0	2708	269.522297684806	1
0	2717	271.022297684806	0
0	2723	271.464651205401	1
0	2724	271.464651205401	2
0	2728	272.522297684806	1
0	2744	274.022297684806	0
0	2750	274.662656422615	1
0	2751	274.662656422615	2
0	2758	275.522297684806	1
0	2777	277.022297684806	0
0	2783	277.128898463578	1
0	2784	277.128898463578	2
0	2796	278.522297684806	1
0	2810	280.022297684806	0
0	2822	281.377950791747	1
0	2823	281.377950791747	2
0	2824	281.522297684806	1
0	2838	283.022297684806	0
0	2847	284.032406511279	1
0	2848	284.032406511279	2
0	2854	284.522297684806	1
0	2860	286.022297684806	0
0	2866	286.073406501615	1
0	2867	286.073406501615	2
0	2876	287.522297684806	1
0	2897	289.022297684806	0
0	2915	290.222687593366	1
0	2916	290.222687593366	2
0	2917	290.522297684806	1
0	2947	292.022297684806	0
0	2953	292.045194978667	1
0	2954	292.045194978667	2
0	2969	293.522297684806	1
0	2986	295.022297684806	0
0	2992	295.602830907702	1
0	2993	295.602830907702	2
0	3000	296.522297684806	1
0	3019	298.022297684806	0
0	3025	298.756975113036	1
0	3026	298.756975113036	2
0	3033	299.522297684806	1
0	3047	301.022297684806	0
0	3053	301.201636058433	1
0	3054	301.201636058433	2
0	3058	302.522297684806	1
0	3069	304.022297684806	0
0	3075	304.143885391401	1
0	3076	304.143885391401	2
0	3085	305.522297684806	1
0	3099	307.022297684806	0
0	3111	308.347753926083	1
0	3112	308.347753926083	2
0	3113	308.522297684806	1
0	3129	310.022297684806	0
0	3135	310.497202566567	1
0	3136	310.497202566567	2
0	3143	311.522297684806	1
0	3162	313.022297684806	0
0	3174	314.197407705354	1
0	3175	314.197407705354	2
0	3176	314.522297684806	1
0	3195	316.022297684806	0
0	3201	316.656265962034	1
0	3202	316.656265962034	2
0	3209	317.522297684806	1
0	3223	319.022297684806	0
0	3229	319.970337294249	1
0	3230	319.970337294249	2
0	3234	320.522297684806	1
0	3250	322.022297684806	0
0	3256	322.670393620068	1
0	3257	322.670393620068	2
0	3269	323.522297684806	1
0	3283	325.022297684806	0
0	3289	325.670366959677	1
0	3290	325.670366959677	2
0	3302	326.522297684806	1
0	3316	328.022297684806	0
0	3322	328.03982333115	1
0	3323	328.03982333115	2
0	3340	329.522297684806	1
0	3354	331.022297684806	0
0	3369	332.221032532519	1
0	3370	332.221032532519	2
0	3371	332.522297684806	1
0	3388	334.022297684806	0
0	3394	334.124690713731	1
0	3395	334.124690713731	2
0	3404	335.522297684806	1
0	3423	337.022297684806	0
0	3435	338.224492831405	1
0	3436	338.224492831405	2
0	3437	338.522297684806	1
0	3456	340.022297684806	0
0	3462	340.499755984486	1
0	3463	340.499755984486	2
0	3470	341.522297684806	1
0	3484	343.022297684806	0
0	3490	343.448191331884	1
0	3491	343.448191331884	2
0	3508	344.522297684806	1
0	3532	346.022297684806	0
0	3547	347.073957398482	1
0	3548	347.073957398482	2
0	3552	347.522297684806	1
0	3577	349.022297684806	0
0	3583	349.922990794339	1
0	3584	349.922990794339	2
0	3591	350.522297684806	1
0	3605	352.022297684806	0
0	3611	352.565829485457	1
0	3612	352.565829485457	2
0	3624	353.522297684806	1
0	3635	355.022297684806	0
0	3641	355.470926978677	1
0	3642	355.470926978677	2
0	3654	356.522297684806	1
0	3668	358.022297684806	0
0	3674	358.1935970637	1
0	3675	358.1935970637	2
0	3687	359.522297684806	1
0	3701	361.022297684806	0
0	3710	362.161468417676	1
0	3711	362.161468417676	2
0	3715	362.522297684806	1
0	3729	364.022297684806	0
0	3735	364.729034038807	1
0	3736	364.729034038807	2
0	3745	365.522297684806	1
0	3756	367.022297684806	0
0	3768	368.305696479208	1
0	3769	368.305696479208	2
0	3770	368.522297684806	1
0	3784	370.022297684806	0
0	3790	370.996890757534	1
0	3791	370.996890757534	2
0	3795	371.522297684806	1
0	3811	373.022297684806	0
0	3817	373.913465204228	1
0	3818	373.913465204228	2
0	3830	374.522297684806	1
0	3844	376.022297684806	0
0	3850	376.467868155264	1
0	3851	376.467868155264	2
0	3858	377.522297684806	1
0	3872	379.022297684806	0
0	3878	379.612602205684	1
0	3879	379.612602205684	2
0	3888	380.522297684806	1
0	3899	382.022297684806	0
0	3905	382.423187089463	1
0	3906	382.423187089463	2
0	3918	383.522297684806	1
0	3935	385.022297684806	0
0	3944	385.615834827727	1
0	3945	385.615834827727	2
0	3954	386.522297684806	1
0	3968	388.022297684806	0
0	3974	388.439967328548	1
0	3975	388.439967328548	2
0	3982	389.522297684806	1
0	3998	391.022297684806	0
0	4004	391.351018733205	1
0	4005	391.351018733205	2
0	4017	392.522297684806	1
0	4036	394.022297684806	0
0	4042	394.681434004489	1
0	4043	394.681434004489	2
0	4053	395.522297684806	1
0	4075	397.022297684806	0
0	4081	397.882895951616	1
0	4082	397.882895951616	2
0	4089	398.522297684806	1
0	4108	400.022297684806	0
0	4114	400.679225613665	1
0	4115	400.679225613665	2
0	4122	401.522297684806	1
0	4141	403.022297684806	0
0	4147	403.766246341822	1
0	4148	403.766246341822	2
0	4155	404.522297684806	1
0	4174	406.022297684806	0
0	4183	407.13587144977	1
0	4184	407.13587144977	2
0	4188	407.522297684806	1
0	4202	409.022297684806	0
0	4208	410.089945795145	1
0	4209	410.089945795145	2
0	4213	410.522297684806	1
0	4224	412.022297684806	0
0	4230	412.425656219818	1
0	4231	412.425656219818	2
0	4235	413.522297684806	1
0	4246	415.022297684806	0
0	4252	415.872057191046	1
0	4253	415.872057191046	2
0	4257	416.522297684806	1
0	4278	418.022297684806	0
0	4297	419.631031873334	1
0	4307	421.131031873334	0
0	4313	421.171745426305	1
0	4314	421.171745426305	2
0	4320	422.631031873334	1
0	4341	424.131031873334	0
0	4353	424.860380111567	1
0	4354	424.860380111567	2
0	4363	425.631031873334	1
0	4375	427.131031873334	0
0	4384	427.473781005417	1
0	4385	427.473781005417	2
0	4389	428.631031873334	1
0	4400	430.131031873334	0
0	4406	430.157079439914	1
0	4407	430.157079439914	2
0	4416	431.631031873334	1
0	4432	433.131031873334	0
0	4447	434.046457858674	1
0	4448	434.046457858674	2
0	4449	434.631031873334	1
0	4471	436.131031873334	0
0	4487	437.715621988521	1
0	4499	439.215621988521	0
0	4508	440.102407982663	1
0	4509	440.102407982663	2
0	4510	440.715621988521	1
0	4521	442.215621988521	0
0	4527	442.92585000188	1
0	4528	442.92585000188	2
0	4537	443.715621988521	1
0	4548	445.215621988521	0
0	4554	445.781260987855	1
0	4555	445.781260987855	2
0	4562	446.715621988521	1
0	4586	448.215621988521	0
0	4592	448.899511213815	1
0	4593	448.899511213815	2
0	4603	449.715621988521	1
0	4630	451.215621988521	0
0	4642	452.316568556469	1
0	4643	452.316568556469	2
0	4647	452.715621988521	1
0	4664	454.215621988521	0
0	4670	454.359797186624	1
0	4671	454.359797186624	2
0	4675	455.715621988521	1
0	4686	457.215621988521	0
0	4692	457.308751595672	1
0	4693	457.308751595672	2
0	4707	458.715621988521	1
0	4721	460.215621988521	0
0	4727	460.428656209052	1
0	4728	460.428656209052	2
0	4743	461.715621988521	1
0	4765	463.215621988521	0
0	4771	463.996883860955	1
0	4772	463.996883860955	2
0	4782	464.715621988521	1
0	4796	466.215621988521	0
0	4802	466.216638466372	1
0	4803	466.216638466372	2
0	4812	467.715621988521	1
0	4831	469.215621988521	0
0	4837	469.824266187736	1
0	4838	469.824266187736	2
0	4850	470.715621988521	1
0	4864	472.215621988521	0
0	4870	472.672764723212	1
0	4871	472.672764723212	2
0	4883	473.715621988521	1
0	4897	475.215621988521	0
0	4906	475.589020885184	1
0	4907	475.589020885184	2
0	4914	476.715621988521	1
0	4928	478.215621988521	0
0	4937	479.668360186332	1
0	4938	479.668360186332	2
0	4939	479.715621988521	1
0	4950	481.215621988521	0
0	4956	482.209510208091	1
0	4957	482.209510208091	2
0	4961	482.715621988521	1
0	4972	484.215621988521	0
0	4978	484.588071187653	1
0	4979	484.588071187653	2
0	4988	485.715621988521	1
0	5002	487.215621988521	0
0	5008	488.213177502728	1
0	5009	488.213177502728	2
0	5021	488.715621988521	1
0	5032	490.215621988521	0
0	5038	490.364363586279	1
0	5039	490.364363586279	2
0	5056	491.715621988521	1
0	5073	493.215621988521	0
0	5079	493.26605234438	1
0	5080	493.26605234438	2
0	5090	494.715621988521	1
0	5104	496.215621988521	0
0	5110	497.336017104279	1
0	5111	497.336017104279	2
0	5115	497.715621988521	1
0	5126	499.215621988521	0
0	5132	499.490429049124	1
0	5133	499.490429049124	2
0	5137	500.715621988521	1
0	5148	502.215621988521	0
0	5161	503.789436762899	1
0	5170	505.289436762899	0
0	5176	505.379898107935	1
0	5177	505.379898107935	2
0	5186	506.789436762899	1
0	5200	508.289436762899	0
0	5206	509.02000240301	1
0	5207	509.02000240301	2
0	5214	509.789436762899	1
0	5230	511.289436762899	0
0	5236	511.475599727972	1
0	5237	511.475599727972	2
0	5249	512.789436762899	1
0	5263	514.289436762899	0
0	5269	514.628459184065	1
0	5270	514.628459184065	2
0	5282	515.789436762899	1
0	5296	517.289436762899	0
0	5302	517.413054161374	1
0	5303	517.413054161374	2
0	5315	518.789436762899	1
0	5337	520.289436762899	0
0	5343	520.641480446858	1
0	5344	520.641480446858	2
0	5354	521.789436762899	1
0	5368	523.289436762899	0
0	5374	524.672662343801	1
0	5375	524.672662343801	2
0	5379	524.789436762899	1
0	5390	526.289436762899	0
0	5396	527.29708183126	1
0	5397	527.29708183126	2
0	5401	527.789436762899	1
0	5417	529.289436762899	0
0	5423	530.056724273811	1
0	5424	530.056724273811	2
0	5431	530.789436762899	1
0	5450	532.289436762899	0
0	5456	533.64051126714	1
0	5457	533.64051126714	2
0	5464	533.789436762899	1
0	5478	535.289436762899	0
0	5484	535.361541233323	1
0	5485	535.361541233323	2
0	5494	536.789436762899	1
0	5503	538.289436762899	0
0	5509	538.62538643217	1
0	5510	538.62538643217	2
0	5514	539.789436762899	1
0	5532	541.289436762899	0
0	5541	542.144446231971	1
0	5542	542.144446231971	2
0	5549	542.789436762899	1
0	5576	544.289436762899	0
0	5582	544.831821703291	1
0	5583	544.831821703291	2
0	5593	545.789436762899	1
0	5610	547.289436762899	0
0	5619	548.515910422897	1
0	5620	548.515910422897	2
0	5626	548.789436762899	1
0	5632	550.289436762899	0
0	5638	550.657427511644	1
0	5639	550.657427511644	2
0	5648	551.789436762899	1
0	5659	553.289436762899	0
0	5665	553.367320289069	1
0	5666	553.367320289069	2
0	5678	554.789436762899	1
0	5695	556.289436762899	0
0	5701	556.848734752003	1
0	5702	556.848734752003	2
0	5719	557.789436762899	1
0	5738	559.289436762899	0
0	5747	559.8130257285	1
0	5748	559.8130257285	2
0	5763	560.789436762899	1
0	5783	562.289436762899	0
0	5789	563.055453357048	1
0	5790	563.055453357048	2
0	5797	563.789436762899	1
0	5818	565.289436762899	0
0	5830	566.51597961067	1
0	5831	566.51597961067	2
0	5835	566.789436762899	1
0	5852	568.289436762899	0
0	5858	569.209381604765	1
0	5859	569.209381604765	2
0	5863	569.789436762899	1
0	5874	571.289436762899	0
0	5887	573.281103207976	1
0	5896	574.781103207976	0
0	5902	575.573824101766	1
0	5903	575.573824101766	2
0	5907	576.281103207976	1
0	5923	577.781103207976	0
0	5929	578.235191358713	1
0	5930	578.235191358713	2
0	5942	579.281103207976	1
0	5956	580.781103207976	0
0	5962	580.823653992322	1
0	5963	580.823653992322	2
0	5970	582.281103207976	1
0	5984	583.781103207976	0
0	5990	583.901338148224	1
0	5991	583.901338148224	2
0	6000	585.281103207976	1
0	6021	586.781103207976	0
0	6030	587.392227989603	1
0	6031	587.392227989603	2
0	6041	588.281103207976	1
0	6071	589.781103207976	0
0	6090	591.898614112196	1
0	6105	593.398614112196	0
0	6111	593.844291230647	1
0	6112	593.844291230647	2
0	6121	594.898614112196	1
0	6132	596.398614112196	0
0	6138	597.285137401228	1
0	6139	597.285137401228	2
0	6146	597.898614112196	1
0	6165	599.398614112196	0
0	6177	600.484378443602	1
0	6178	600.484378443602	2
0	6184	600.898614112196	1
0	6198	602.398614112196	0
0	6204	602.518431358776	1
0	6205	602.518431358776	2
0	6217	603.898614112196	1
0	6239	605.398614112196	0
0	6248	606.038182319284	1
0	6249	606.038182319284	2
0	6261	606.898614112196	1
0	6275	608.398614112196	0
0	6287	609.626822468154	1
0	6288	609.626822468154	2
0	6289	609.898614112196	1
0	6298	611.398614112196	0
0	6304	611.980815255988	1
0	6305	611.980815255988	2
0	6306	612.898614112196	1
0	6314	614.398614112196	0
0	6323	615.50791006642	1
0	6324	615.50791006642	2
0	6325	615.898614112196	1
0	6336	617.398614112196	0
0	6342	617.777039623734	1
0	6343	617.777039623734	2
0	6352	618.898614112196	1
0	6363	620.398614112196	0
0	6375	621.771904627698	1
0	6376	621.771904627698	2
0	6377	621.898614112196	1
0	6391	623.398614112196	0
0	6397	623.57271531605	1
0	6398	623.57271531605	2
0	6412	624.898614112196	1
0	6426	626.398614112196	0
0	6432	626.651409824548	1
0	6433	626.651409824548	2
0	6445	627.898614112196	1
0	6459	629.398614112196	0
0	6475	631.039986068538	1
0	6482	632.539986068538	0
0	6491	633.529584634238	1
0	6492	633.529584634238	2
0	6498	634.039986068538	1
0	6509	635.539986068538	0
0	6518	636.491622098814	1
0	6519	636.491622098814	2
0	6523	637.039986068538	1
0	6534	638.539986068538	0
0	6540	639.209195476468	1
0	6541	639.209195476468	2
0	6545	640.039986068538	1
0	6556	641.539986068538	0
0	6562	641.830827710665	1
0	6563	641.830827710665	2
0	6572	643.039986068538	1
0	6591	644.539986068538	0
0	6600	645.124812120083	1
0	6601	645.124812120083	2
0	6610	646.039986068538	1
0	6624	647.539986068538	0
0	6636	648.00293041236	1
0	6637	648.00293041236	2
0	6646	649.039986068538	1
0	6663	650.539986068538	0
0	6669	651.041462575157	1
0	6670	651.041462575157	2
0	6677	652.039986068538	1
0	6688	653.539986068538	0
0	6694	654.069347713094	1
0	6695	654.069347713094	2
0	6704	655.039986068538	1
0	6718	656.539986068538	0
0	6724	657.207669236578	1
0	6725	657.207669236578	2
0	6732	658.039986068538	1
0	6743	659.539986068538	0
0	6749	660.029431033546	1
0	6750	660.029431033546	2
0	6754	661.039986068538	1
0	6765	662.539986068538	0
0	6771	663.479361228679	1
0	6772	663.479361228679	2
0	6776	664.039986068538	1
0	6792	665.539986068538	0
0	6798	666.304397641904	1
0	6799	666.304397641904	2
0	6806	667.039986068538	1
0	6825	668.539986068538	0
0	6831	669.041199081888	1
0	6832	669.041199081888	2
0	6844	670.039986068538	1
0	6863	671.539986068538	0
0	6869	672.153222363952	1
0	6870	672.153222363952	2
0	6880	673.039986068538	1
0	6897	674.539986068538	0
0	6903	674.827330064931	1
0	6904	674.827330064931	2
0	6913	676.039986068538	1
0	6929	677.539986068538	0
0	6938	678.846800923292	1
0	6939	678.846800923292	2
0	6946	679.039986068538	1
0	6958	680.539986068538	0
0	6964	680.722067678978	1
0	6965	680.722067678978	2
0	6971	682.039986068538	1
0	6987	683.539986068538	0
0	6996	684.415536764594	1
0	6997	684.415536764594	2
0	7004	685.039986068538	1
0	7023	686.539986068538	0
0	7039	688.154297211604	1
0	7051	689.654297211604	0
0	7057	690.519256000661	1
0	7058	690.519256000661	2
0	7067	691.154297211604	1
0	7081	692.654297211604	0
0	7087	693.298133250552	1
0	7088	693.298133250552	2
0	7100	694.154297211604	1
0	7114	695.654297211604	0
0	7126	697.13931700771	1
0	7127	697.13931700771	2
0	7128	697.154297211604	1
0	7144	698.654297211604	0
0	7153	699.284211626644	1
0	7154	699.284211626644	2
0	7163	700.154297211604	1
0	7177	701.654297211604	0
0	7186	702.638025653877	1
0	7187	702.638025653877	2
0	7191	703.154297211604	1
0	7205	704.654297211604	0
0	7211	705.412968248798	1
0	7212	705.412968248798	2
0	7216	706.154297211604	1
0	7227	707.654297211604	0
0	7233	708.279147285563	1
0	7234	708.279147285563	2
0	7238	709.154297211604	1
0	7254	710.654297211604	0
0	7260	710.954667709207	1
0	7261	710.954667709207	2
0	7278	712.154297211604	1
0	7295	713.654297211604	0
0	7304	714.807272751718	1
0	7305	714.807272751718	2
0	7317	715.154297211604	1
0	7336	716.654297211604	0
0	7342	716.941650819028	1
0	7343	716.941650819028	2
0	7353	718.154297211604	1
0	7375	719.654297211604	0
0	7381	720.355173258442	1
0	7382	720.355173258442	2
0	7389	721.154297211604	1
0	7413	722.654297211604	0
0	7422	723.675435420374	1
0	7423	723.675435420374	2
0	7435	724.154297211604	1
0	7457	725.654297211604	0
0	7463	726.196712952188	1
0	7464	726.196712952188	2
0	7479	727.154297211604	1
0	7501	728.654297211604	0
0	7510	729.93413415879	1
0	7511	729.93413415879	2
0	7518	730.154297211604	1
0	7540	731.654297211604	0
0	7546	731.926636527928	1
0	7547	731.926636527928	2
0	7554	733.154297211604	1
0	7578	734.654297211604	0
0	7584	735.492669217354	1
0	7585	735.492669217354	2
0	7595	736.154297211604	1
0	7612	737.654297211604	0
0	7618	738.640091359766	1
0	7619	738.640091359766	2
0	7623	739.154297211604	1
0	7639	740.654297211604	0
0	7645	741.120992547713	1
0	7646	741.120992547713	2
0	7653	742.154297211604	1
0	7672	743.654297211604	0
0	7678	744.0998559163	1
0	7679	744.0998559163	2
0	7686	745.154297211604	1
0	7705	746.654297211604	0
0	7711	747.290720817447	1
0	7712	747.290720817447	2
0	7729	748.154297211604	1
0	7749	749.654297211604	0
0	7755	749.793470578325	1
0	7756	749.793470578325	2
0	7781	751.154297211604	1
0	7801	752.654297211604	0
0	7807	753.157206783914	1
0	7808	753.157206783914	2
0	7821	754.154297211604	1
0	7837	755.654297211604	0
0	7843	756.211484699625	1
0	7844	756.211484699625	2
0	7861	757.154297211604	1
0	7878	758.654297211604	0
0	7884	759.526230949205	1
0	7885	759.526230949205	2
0	7900	760.154297211604	1
0	7917	761.654297211604	0
0	7923	761.799375912228	1
0	7924	761.799375912228	2
0	7941	763.154297211604	1
0	7958	764.654297211604	0
0	7964	764.995581710093	1
0	7965	764.995581710093	2
0	7975	766.154297211604	1
0	7991	767.654297211604	0
0	7997	767.849683521624	1
0	7998	767.849683521624	2
0	8010	769.154297211604	1
0	8027	770.654297211604	0
0	8033	771.108804201535	1
0	8034	771.108804201535	2
0	8046	772.154297211604	1
0	8060	773.654297211604	0
0	8066	773.910388792187	1
0	8067	773.910388792187	2
0	8084	775.154297211604	1
0	8106	776.654297211604	0
0	8112	776.740024740635	1
0	8113	776.740024740635	2
0	8131	778.154297211604	1
0	8148	779.654297211604	0
0	8154	780.094257135982	1
0	8155	780.094257135982	2
0	8167	781.154297211604	1
0	8186	782.654297211604	0
0	8198	783.941657282828	1
0	8199	783.941657282828	2
0	8203	784.154297211604	1
0	8217	785.654297211604	0
0	8230	787.206937576906	1
0	8234	788.706937576906	0
0	8240	789.378099826128	1
0	8241	789.378099826128	2
0	8242	790.206937576906	1
0	8255	791.706937576906	0
0	8261	792.258663675193	1
0	8262	792.258663675193	2
0	8269	793.206937576906	1
0	8288	794.706937576906	0
0	8297	795.799361667781	1
0	8298	795.799361667781	2
0	8302	796.206937576906	1
0	8316	797.706937576906	0
0	8322	798.174844787557	1
0	8323	798.174844787557	2
0	8327	799.206937576906	1
0	8338	800.706937576906	0
0	8351	802.555833133825	1
0	8360	804.055833133825	0
0	8366	804.586919127869	1
0	8367	804.586919127869	2
0	8371	805.555833133825	1
0	8387	807.055833133825	0
0	8393	807.864397594819	1
0	8394	807.864397594819	2
0	8401	808.555833133825	1
0	8420	810.055833133825	0
0	8426	810.662735183244	1
0	8427	810.662735183244	2
0	8434	811.555833133825	1
0	8448	813.055833133825	0
0	8457	814.065881760287	1
0	8458	814.065881760287	2
0	8459	814.555833133825	1
0	8470	816.055833133825	0
0	8476	816.339978244097	1
0	8477	816.339978244097	2
0	8486	817.555833133825	1
0	8500	819.055833133825	0
0	8512	820.505250872877	1
0	8513	820.505250872877	2
0	8514	820.555833133825	1
0	8520	822.055833133825	0
0	8526	822.304453309595	1
0	8527	822.304453309595	2
0	8533	823.555833133825	1
0	8554	825.055833133825	0
0	8572	826.139777115678	1
0	8573	826.139777115678	2
0	8574	826.555833133825	1
0	8591	828.055833133825	0
0	8597	828.324497517908	1
0	8598	828.324497517908	2
0	8607	829.555833133825	1
0	8621	831.055833133825	0
0	8633	832.229618481349	1
0	8634	832.229618481349	2
0	8635	832.555833133825	1
0	8651	834.055833133825	0
0	8657	834.766737113453	1
0	8658	834.766737113453	2
0	8665	835.555833133825	1
0	8679	837.055833133825	0
0	8685	837.341686734951	1
0	8686	837.341686734951	2
0	8690	838.555833133825	1
0	8701	840.055833133825	0
0	8710	841.099162719332	1
0	8711	841.099162719332	2
0	8712	841.555833133825	1
0	8738	843.055833133825	0
0	8747	843.323019390993	1
0	8748	843.323019390993	2
0	8758	844.555833133825	1
0	8783	846.055833133825	0
0	8789	846.405490315235	1
0	8790	846.405490315235	2
0	8802	847.555833133825	1
0	8819	849.055833133825	0