version 3
run MMc-44-20221127-11:38:42-21264
attr configname MMc
attr datetime 20221127-11:38:42
attr datetimef 20221127-113842
attr experiment MMc
attr inifile omnetpp.ini
attr iterationvars "$mean=uniform(0.5s, 1.5s), $dev=0.5*(uniform(0.5s, 1.5s)), $time=2.5, $num=5, $0=53542, $1=75335, $2=34542"
attr iterationvarsd mean=uniform(0.5s,_1.5s)/dev=0.5#2a(uniform(0.5s,_1.5s))/time=2.5/num=5/53542/75335/34542
attr iterationvarsf mean=uniform(0.5s,_1.5s),dev=0.5#2a(uniform(0.5s,_1.5s)),time=2.5,num=5,53542,75335,34542-
attr measurement "$mean=uniform(0.5s, 1.5s), $dev=0.5*(uniform(0.5s, 1.5s)), $time=2.5, $num=5, $0=53542, $1=75335, $2=34542"
attr network MMc
attr processid 21264
attr repetition 0
attr replication #0
attr resultdir results
attr runnumber 44
attr seedset 44
itervar dev "0.5*(uniform(0.5s, 1.5s))"
itervar mean "uniform(0.5s, 1.5s)"
itervar num 5
itervar time 2.5
config description "MMc module"
config network MMc
config MMc.source.interArrivalTime "truncnormal(uniform(0.5s, 1.5s), 0.5*(uniform(0.5s, 1.5s)))"
config MMc.mmc.serviceTime 2.5s
config MMc.mmc.c 5
config MMc.mmc.capacity 10000
config record-eventlog false
config **.scalar-recording true
config **.vector-recording true
config repeat 4
config seed-1-mt 53542
config seed-2-mt 75335
config seed-3-mt 34542
config output-vector-file MMc-5-2.5-results/0.vec
config output-scalar-file MMc-5-2.5-results/0.sca

vector 0 MMc.mmc queueLength:vector ETV
attr interpolationmode none
attr recordingmode vector
attr title "queue length"
vector 1 MMc.mmc util:vector ETV
attr interpolationmode none
attr recordingmode vector
attr title resources
0	0	0	0
0	16	13.843506631691	1
0	17	14.04988307145	0
0	23	14.614346687059	1
0	24	15.5080854882	0
0	30	15.914255621949	1
0	31	16.343506631691	0
0	51	19.236885702391	1
0	53	19.753062193599	2
0	54	19.753062193599	3
0	55	20.06273655306	2
0	56	20.06273655306	1
0	60	20.714305639386	2
0	61	20.714305639386	3
0	62	21.105721513816	2
0	63	21.105721513816	1
0	66	21.736885702391	0
0	69	21.89528505927	1
0	70	21.89528505927	2
0	71	22.56273655306	1
0	72	22.56273655306	0
0	76	22.673982158948	1
0	77	22.673982158948	2
0	78	23.605721513816	1
0	79	23.605721513816	0
0	83	23.741814548109	1
0	84	23.741814548109	2
0	85	24.236885702391	1
0	87	25.06273655306	0
0	93	25.238030509226	1
0	94	26.105721513816	0
0	100	26.513684462546	1
0	101	26.736885702391	0
0	104	27.01669919619	1
0	105	27.01669919619	2
0	106	27.56273655306	1
0	108	27.738030509226	0
0	111	27.854703806054	1
0	112	27.854703806054	2
0	113	28.605721513816	1
0	115	29.013684462546	0
0	135	33.160354836607	1
0	136	33.549281926289	0
0	142	34.54275893063	1
0	143	34.792341129552	0
0	177	40.909808421415	1
0	178	41.663156913886	0
0	184	41.685753392317	1
0	185	43.112053980357	0
0	205	45.669831593103	1
0	206	45.932597064061	0
0	212	46.457565216149	1
0	213	47.744220198266	0
0	219	47.802086393765	1
0	220	48.169831593103	0
0	247	53.617582301245	1
0	248	53.731720308551	0
0	254	54.266650328275	1
0	256	54.95096450812	2
0	257	54.95096450812	3
0	258	55.18982852615	2
0	259	55.18982852615	1
0	263	55.67699967153	2
0	264	55.67699967153	3
0	265	56.117582301245	2
0	267	56.231720308551	1
0	269	56.766650328275	0
0	296	61.173043633821	1
0	297	61.650514448867	0
0	303	62.283165639016	1
0	304	63.055899718734	0
0	310	63.080881443538	1
0	311	63.673043633821	0
0	317	64.354457702974	1
0	318	64.783165639016	0
0	352	71.040882350948	1
0	353	71.238830129597	0
0	359	71.737244940155	1
0	360	72.512911816267	0
0	366	72.902041558424	1
0	367	73.540882350948	0
0	370	73.664007662499	1
0	371	73.664007662499	2
0	372	73.738830129597	1
0	374	74.237244940155	0
0	377	74.344299148671	1
0	378	74.344299148671	2
0	379	75.012911816267	1
0	382	75.362237937853	2
0	383	75.362237937853	3
0	384	75.402041558424	2
0	386	76.040882350948	1
0	388	76.238830129597	0
0	394	76.880775981555	1
0	395	77.512911816267	0
0	401	78.244834447468	1
0	402	78.540882350948	0
0	408	79.149526052606	1
0	409	79.380775981555	0
0	412	79.924653059852	1
0	413	79.924653059852	2
0	414	80.012911816267	1
0	416	80.744834447468	0
0	419	80.753377227181	1
0	420	80.753377227181	2
0	421	81.040882350948	1
0	423	81.649526052606	0
0	429	82.128453510792	1
0	430	82.512911816267	0
0	433	82.560127118283	1
0	434	82.560127118283	2
0	435	83.244834447468	1
0	437	83.540882350948	0
0	443	84.235716678098	1
0	444	84.628453510792	0
0	450	85.043574325688	1
0	451	85.744834447468	0
0	471	89.009801259577	1
0	472	89.307068928292	0
0	478	89.885180025765	1
0	479	90.143615830992	0
0	499	93.770414920484	1
0	500	94.194567965825	0
0	506	94.545562840959	1
0	508	95.397616151738	2
0	509	95.397616151738	3
0	510	95.834686850933	2
0	511	95.834686850933	1
0	514	96.270414920484	0
0	517	96.51513257971	1
0	518	96.51513257971	2
0	519	96.694567965825	1
0	521	97.045562840959	0
0	524	97.890320848673	1
0	525	97.890320848673	2
0	526	98.334686850933	1
0	527	98.334686850933	0
0	531	98.728630841096	1
0	532	98.728630841096	2
0	533	98.770414920484	1
0	535	99.194567965825	0
0	541	99.921195058897	1
0	543	100.69394490125	2
0	544	100.69394490125	3
0	545	100.834686850933	2
0	546	100.834686850933	1
0	550	100.984034344782	2
0	551	100.984034344782	3
0	552	101.270414920484	2
0	554	101.694567965825	1
0	557	101.910108178383	2
0	558	101.910108178383	3
0	559	102.421195058897	2
0	562	102.59982071751	3
0	563	102.59982071751	4
0	564	103.334686850933	3
0	565	103.334686850933	2
0	568	103.770414920484	1
0	570	104.194567965825	0
0	576	105.228939240261	1
0	577	105.834686850933	0
0	590	107.253699129141	1
0	591	107.728939240261	0
0	597	108.521458913192	1
0	598	108.826650462534	0
0	604	109.249095348123	1
0	605	109.753699129141	0
0	608	110.062854296683	1
0	609	110.062854296683	2
0	610	110.228939240261	1
0	613	110.25597040433	2
0	614	110.25597040433	3
0	615	111.021458913192	2
0	617	111.326650462534	1
0	620	111.726732760604	2
0	621	111.726732760604	3
0	622	111.749095348123	2
0	624	112.253699129141	1
0	626	112.728939240261	0
0	629	112.913224686589	1
0	630	112.913224686589	2
0	632	112.954869149583	3
0	633	112.954869149583	4
0	634	113.521458913192	3
0	636	113.826650462534	2
0	638	114.249095348123	1
0	640	114.753699129141	0
0	643	114.814814923367	1
0	644	114.814814923367	2
0	646	115.13279122286	3
0	647	115.13279122286	4
0	648	115.228939240261	3
0	651	115.991829149854	4
0	652	115.991829149854	5
0	653	116.021458913192	4
0	655	116.326650462534	3
0	657	116.749095348123	2
0	659	117.253699129141	1
0	662	117.393072281964	2
0	663	117.393072281964	3
0	664	117.728939240261	2
0	667	118.199685911582	3
0	668	118.199685911582	4
0	669	118.521458913192	3
0	671	118.826650462534	2
0	673	119.249095348123	1
0	675	119.753699129141	0
0	678	120.028491280112	1
0	679	120.028491280112	2
0	680	120.228939240261	1
0	683	120.433861349515	2
0	684	120.433861349515	3
0	685	121.021458913192	2
0	688	121.326537686975	3
0	689	121.326537686975	4
0	690	121.326650462534	3
0	692	121.749095348123	2
0	694	122.253699129141	1
0	696	122.728939240261	0
0	699	122.90787244264	1
0	700	122.90787244264	2
0	702	123.021940800051	3
0	703	123.021940800051	4
0	704	123.521458913192	3
0	706	123.826650462534	2
0	709	124.018474428951	3
0	710	124.018474428951	4
0	711	124.249095348123	3
0	713	124.753699129141	2
0	715	125.228939240261	1
0	718	125.272038447617	2
0	719	125.272038447617	3
0	720	126.021458913192	2
0	723	126.159167401302	3
0	724	126.159167401302	4
0	725	126.326650462534	3
0	727	126.749095348123	2
0	730	127.183834865152	3
0	731	127.183834865152	4
0	732	127.253699129141	3
0	734	127.728939240261	2
0	737	128.285835714659	3
0	738	128.285835714659	4
0	739	128.521458913192	3
0	741	128.826650462534	2
0	744	129.238254935004	3
0	745	129.238254935004	4
0	746	129.249095348123	3
0	749	129.545771651441	4
0	750	129.545771651441	5
0	751	129.753699129141	4
0	753	130.228939240261	3
0	755	131.021458913192	2
0	757	131.326650462534	1
0	760	131.492161093908	2
0	761	131.492161093908	3
0	762	131.749095348123	2
0	764	132.253699129141	1
0	766	132.728939240261	0
0	769	132.867661746932	1
0	770	132.867661746932	2
0	771	133.521458913192	1
0	774	133.607538807981	2
0	775	133.607538807981	3
0	776	133.826650462534	2
0	778	134.249095348123	1
0	780	134.753699129141	0
0	783	135.094913586516	1
0	784	135.094913586516	2
0	785	135.228939240261	1
0	787	136.021458913192	0
0	793	136.365003015456	1
0	794	136.749095348123	0
0	797	137.033274971183	1
0	798	137.033274971183	2
0	799	137.253699129141	1
0	801	137.728939240261	0
0	804	137.856874256266	1
0	805	137.856874256266	2
0	807	138.407841551633	3
0	808	138.407841551633	4
0	809	138.521458913192	3
0	811	138.865003015456	2
0	814	139.244033674219	3
0	815	139.244033674219	4
0	816	139.249095348123	3
0	819	139.604633353029	4
0	820	139.604633353029	5
0	821	139.753699129141	4
0	823	140.228939240261	3
0	825	141.021458913192	2
0	828	141.085359616585	3
0	829	141.085359616585	4
0	831	141.283363233431	5
0	832	141.283363233431	6
0	833	141.365003015456	5
0	835	141.749095348123	4
0	837	142.253699129141	3
0	840	142.38477686315	4
0	841	142.38477686315	5
0	842	142.728939240261	4
0	844	143.521458913192	3
0	847	143.769172171183	4
0	848	143.769172171183	5
0	849	143.865003015456	4
0	851	144.249095348123	3
0	853	144.753699129141	2
0	856	145.034241667143	3
0	857	145.034241667143	4
0	858	145.228939240261	3
0	860	146.021458913192	2
0	863	146.314098153069	3
0	864	146.314098153069	4
0	865	146.365003015456	3
0	867	146.749095348123	2
0	869	147.253699129141	1
0	872	147.60833422566	2
0	873	147.60833422566	3
0	874	147.728939240261	2
0	876	148.521458913192	1
0	878	148.865003015456	0
0	884	149.68267749162	1
0	885	149.753699129141	0
0	891	150.399083472232	1
0	892	151.021458913192	0
0	898	151.977748907322	1
0	899	152.18267749162	0
0	905	152.761583807771	1
0	906	152.899083472232	0
0	961	164.44106211153	1
0	962	165.153861856743	0
0	968	165.266454395881	1
0	970	165.906762668127	2
0	971	165.906762668127	3
0	972	166.218014342201	2
0	973	166.218014342201	1
0	977	166.337305747463	2
0	978	166.337305747463	3
0	979	166.94106211153	2
0	982	166.992887213172	3
0	983	166.992887213172	4
0	984	167.653861856743	3
0	986	167.766454395881	2
0	989	168.251113750916	3
0	990	168.251113750916	4
0	991	168.718014342201	3
0	992	168.718014342201	2
0	996	168.884937691571	3
0	997	168.884937691571	4
0	998	169.44106211153	3
0	1000	170.153861856743	2
0	1002	170.266454395881	1
0	1005	171.123191539783	2
0	1006	171.123191539783	3
0	1007	171.218014342201	2
0	1008	171.218014342201	1
0	1011	171.94106211153	0
0	1021	173.499954323319	1
0	1022	173.499954323319	2
0	1023	173.718014342201	1
0	1024	173.718014342201	0
0	1028	174.161660725711	1
0	1029	174.161660725711	2
0	1030	174.44106211153	1
0	1033	175.300972284347	2
0	1034	175.300972284347	3
0	1035	175.654386429046	2
0	1036	175.654386429046	1
0	1039	176.218014342201	0
0	1066	181.847968891741	1
0	1067	182.170130378348	0
0	1073	182.37144730258	1
0	1075	183.347169555539	2
0	1076	183.347169555539	3
0	1077	183.721497576912	2
0	1078	183.721497576912	1
0	1082	184.254510325086	2
0	1083	184.254510325086	3
0	1084	184.347968891741	2
0	1086	184.670130378348	1
0	1088	184.87144730258	0
0	1091	185.392333267563	1
0	1092	185.392333267563	2
0	1094	185.549609404506	3
0	1095	185.549609404506	4
0	1096	186.221497576912	3
0	1097	186.221497576912	2
0	1100	186.847968891741	1
0	1102	187.170130378348	0
0	1108	188.409824720319	1
0	1109	188.721497576912	0
0	1115	189.191714387114	1
0	1116	189.347968891741	0
0	1122	190.564361419813	1
0	1123	190.909824720319	0
0	1157	196.547069720537	1
0	1158	197.198508091232	0
0	1164	197.399027297941	1
0	1165	198.202515549496	0
0	1171	198.717928847018	1
0	1172	199.047069720537	0
0	1175	199.545855673863	1
0	1176	199.545855673863	2
0	1177	199.698508091232	1
0	1179	199.899027297941	0
0	1182	199.922968882723	1
0	1183	199.922968882723	2
0	1185	200.559547589379	3
0	1186	200.559547589379	4
0	1187	200.702515549496	3
0	1189	201.217928847018	2
0	1191	201.547069720537	1
0	1194	202.076300952044	2
0	1195	202.076300952044	3
0	1196	202.198508091232	2
0	1198	202.399027297941	1
0	1200	203.202515549496	0
0	1203	203.367240668926	1
0	1204	203.367240668926	2
0	1205	203.717928847018	1
0	1207	204.047069720537	0
0	1210	204.118838704164	1
0	1211	204.118838704164	2
0	1212	204.698508091232	1
0	1214	204.899027297941	0
0	1217	205.123705977381	1
0	1218	205.123705977381	2
0	1219	205.702515549496	1
0	1222	206.083635702817	2
0	1223	206.083635702817	3
0	1224	206.217928847018	2
0	1226	206.547069720537	1
0	1228	207.198508091232	0
0	1231	207.320954699799	1
0	1232	207.320954699799	2
0	1233	207.399027297941	1
0	1235	208.202515549496	0
0	1241	208.872409998807	1
0	1242	209.047069720537	0
0	1276	215.983535753574	1
0	1277	216.387818947931	0
0	1283	216.391622026677	1
0	1285	217.242845588825	2
0	1286	217.242845588825	3
0	1288	217.40107148847	4
0	1289	217.40107148847	5
0	1290	217.65890656955	4
0	1291	217.65890656955	3
0	1295	217.802629501523	4
0	1296	217.802629501523	5
0	1297	218.483535753574	4
0	1299	218.887818947931	3
0	1301	218.891622026677	2
0	1304	219.416371993116	3
0	1305	219.416371993116	4
0	1306	220.15890656955	3
0	1307	220.15890656955	2
0	1311	220.732683905915	3
0	1312	220.732683905915	4
0	1313	220.983535753574	3
0	1315	221.387818947931	2
0	1317	221.391622026677	1
0	1320	222.010771013435	2
0	1321	222.010771013435	3
0	1322	222.65890656955	2
0	1323	222.65890656955	1
0	1327	223.30192939209	2
0	1328	223.30192939209	3
0	1329	223.483535753574	2
0	1331	223.887818947931	1
0	1333	223.891622026677	0
0	1336	224.385505888413	1
0	1337	224.385505888413	2
0	1338	225.15890656955	1
0	1339	225.15890656955	0
0	1343	225.492306232792	1
0	1344	225.492306232792	2
0	1345	225.983535753574	1
0	1348	226.149383078825	2
0	1349	226.149383078825	3
0	1350	226.387818947931	2
0	1352	226.391622026677	1
0	1355	227.211171454326	2
0	1356	227.211171454326	3
0	1357	227.65890656955	2
0	1358	227.65890656955	1
0	1361	228.483535753574	0
0	1364	228.576239804351	1
0	1365	228.576239804351	2
0	1366	228.887818947931	1
0	1368	228.891622026677	0
0	1381	231.05568135163	1
0	1382	231.387818947931	0
0	1388	232.295985812134	1
0	1390	232.319747868052	2
0	1391	232.319747868052	3
0	1392	232.681751100208	2
0	1393	232.681751100208	1
0	1397	232.789475791056	2
0	1398	232.789475791056	3
0	1399	233.55568135163	2
0	1401	233.887818947931	1
0	1404	234.281538125717	2
0	1405	234.281538125717	3
0	1406	234.795985812134	2
0	1408	235.181751100208	1
0	1409	235.181751100208	0
0	1413	235.385719339422	1
0	1414	235.385719339422	2
0	1415	236.05568135163	1
0	1418	236.188958985759	2
0	1419	236.188958985759	3
0	1421	236.304587269943	4
0	1422	236.304587269943	5
0	1423	236.387818947931	4
0	1426	237.083783221625	5
0	1427	237.083783221625	6
0	1428	237.295985812134	5
0	1430	237.681751100208	4
0	1431	237.681751100208	3
0	1435	237.919945910489	4
0	1436	237.919945910489	5
0	1438	238.387162379602	6
0	1439	238.387162379602	7
0	1440	238.55568135163	6
0	1442	238.887818947931	5
0	1445	239.263552535466	6
0	1446	239.263552535466	7
0	1447	239.795985812134	6
0	1450	240.10675133869	7
0	1451	240.10675133869	8
0	1452	240.181751100208	7
0	1453	240.181751100208	6
0	1456	241.05568135163	5
0	1459	241.171648373998	6
0	1460	241.171648373998	7
0	1461	241.387818947931	6
0	1464	241.970482787396	7
0	1465	241.970482787396	8
0	1466	242.295985812134	7
0	1468	242.681751100208	6
0	1469	242.681751100208	5
0	1473	243.337718618996	6
0	1474	243.337718618996	7
0	1475	243.55568135163	6
0	1477	243.887818947931	5
0	1480	244.388441009443	6
0	1481	244.388441009443	7
0	1483	244.700675666537	8
0	1484	244.700675666537	9
0	1485	244.795985812134	8
0	1487	245.181751100208	7
0	1488	245.181751100208	6
0	1491	246.05568135163	5
0	1494	246.280228252811	6
0	1495	246.280228252811	7
0	1496	246.387818947931	6
0	1499	247.147442667282	7
0	1500	247.147442667282	8
0	1501	247.295985812134	7
0	1504	247.462848056661	8
0	1505	247.462848056661	9
0	1506	247.681751100208	8
0	1507	247.681751100208	7
0	1511	248.19926947616	8
0	1512	248.19926947616	9
0	1513	248.55568135163	8
0	1515	248.887818947931	7
0	1518	249.728246629345	8
0	1519	249.728246629345	9
0	1520	249.795985812134	8
0	1522	250.181751100208	7
0	1523	250.181751100208	6
0	1526	251.05568135163	5
0	1529	251.188322440468	6
0	1530	251.188322440468	7
0	1531	251.387818947931	6
0	1534	252.143777236257	7
0	1535	252.143777236257	8
0	1536	252.295985812134	7
0	1538	252.681751100208	6
0	1539	252.681751100208	5
0	1543	253.029304616092	6
0	1544	253.029304616092	7
0	1545	253.55568135163	6
0	1547	253.887818947931	5
0	1550	254.405383644488	6
0	1551	254.405383644488	7
0	1552	254.795985812134	6
0	1554	255.181751100208	5
0	1555	255.181751100208	4
0	1559	255.638522487641	5
0	1560	255.638522487641	6
0	1561	256.05568135163	5
0	1563	256.387818947931	4
0	1566	256.979336952994	5
0	1567	256.979336952994	6
0	1568	257.295985812134	5
0	1570	257.681751100208	4
0	1571	257.681751100208	3
0	1575	258.384623172327	4
0	1576	258.384623172327	5
0	1577	258.55568135163	4
0	1579	258.887818947931	3
0	1582	259.794794611018	4
0	1583	259.794794611018	5
0	1584	259.795985812134	4
0	1586	260.181751100208	3
0	1587	260.181751100208	2
0	1591	260.996701073842	3
0	1592	260.996701073842	4
0	1593	261.05568135163	3
0	1595	261.387818947931	2
0	1598	261.712912245577	3
0	1599	261.712912245577	4
0	1600	262.295985812134	3
0	1602	262.681751100208	2
0	1603	262.681751100208	1
0	1607	262.74362964467	2
0	1608	262.74362964467	3
0	1609	263.55568135163	2
0	1611	263.887818947931	1
0	1614	263.913944157983	2
0	1615	263.913944157983	3
0	1616	264.795985812134	2
0	1618	265.181751100208	1
0	1619	265.181751100208	0
0	1623	265.396751119987	1
0	1624	265.396751119987	2
0	1625	266.05568135163	1
0	1627	266.387818947931	0
0	1630	266.987229017127	1
0	1631	266.987229017127	2
0	1632	267.295985812134	1
0	1634	267.681751100208	0
0	1640	268.502866971965	1
0	1641	268.55568135163	0
0	1647	269.348741134783	1
0	1648	269.795985812134	0
0	1651	269.886240029867	1
0	1652	269.886240029867	2
0	1653	270.181751100208	1
0	1656	270.689492499653	2
0	1657	270.689492499653	3
0	1658	271.002866971965	2
0	1660	271.05568135163	1
0	1663	271.171049879923	2
0	1664	271.171049879923	3
0	1665	271.848741134783	2
0	1668	272.156833826114	3
0	1669	272.156833826114	4
0	1670	272.295985812134	3
0	1672	272.681751100208	2
0	1675	272.714902657441	3
0	1676	272.714902657441	4
0	1677	273.502866971965	3
0	1679	273.55568135163	2
0	1682	273.558769264443	3
0	1683	273.558769264443	4
0	1684	274.348741134783	3
0	1686	274.795985812134	2
0	1688	275.181751100208	1
0	1691	275.18181518632	2
0	1692	275.18181518632	3
0	1693	276.002866971965	2
0	1695	276.05568135163	1
0	1697	276.848741134783	0
0	1700	277.133546190639	1
0	1701	277.133546190639	2
0	1702	277.295985812134	1
0	1704	277.681751100208	0
0	1714	279.204882579124	1
0	1715	279.204882579124	2
0	1716	279.348741134783	1
0	1718	279.795985812134	0
0	1721	280.049450387891	1
0	1722	280.049450387891	2
0	1723	280.181751100208	1
0	1725	281.323824790236	0
0	1731	281.527877320595	1
0	1732	281.848741134783	0
0	1752	285.382077470609	1
0	1753	285.58936405562	0
0	1766	287.832957509688	1
0	1767	287.882077470609	0
0	1773	289.46668591742	1
0	1774	289.849438998871	0
0	1787	291.368301036434	1
0	1789	291.955039083493	2
0	1790	291.955039083493	3
0	1791	291.96668591742	2
0	1793	292.349438998871	1
0	1796	292.632981078018	2
0	1797	292.632981078018	3
0	1798	292.910288810723	2
0	1799	292.910288810723	1
0	1802	293.868301036434	0
0	1805	294.259030489343	1
0	1806	294.259030489343	2
0	1807	294.46668591742	1
0	1809	294.849438998871	0
0	1843	300.774290881373	1
0	1845	301.22320276884	2
0	1846	301.22320276884	3
0	1847	301.550296499298	2
0	1848	301.550296499298	1
0	1851	302.486197129039	0
0	1868	304.519560725257	1
0	1869	304.519560725257	2
0	1870	304.986197129039	1
0	1873	305.86049799469	2
0	1874	305.86049799469	3
0	1875	306.180271751897	2
0	1876	306.180271751897	1
0	1879	306.67787229398	0
0	1906	312.229795450431	1
0	1907	312.825650018136	0
0	1924	314.958937298286	1
0	1925	314.958937298286	2
0	1926	315.325650018136	1
0	1929	315.958510669868	2
0	1930	315.958510669868	3
0	1931	316.202753818005	2
0	1932	316.202753818005	1
0	1935	317.267361598128	0
0	1941	317.681428998212	1
0	1942	317.825650018136	0
0	1945	318.585052275692	1
0	1946	318.585052275692	2
0	1947	318.702753818005	1
0	1948	318.702753818005	0
0	1952	318.901474640185	1
0	1953	318.901474640185	2
0	1955	319.475115923657	3
0	1956	319.475115923657	4
0	1957	319.767361598128	3
0	1959	320.181428998212	2
0	1961	320.325650018136	1
0	1964	320.77458258328	2
0	1965	320.77458258328	3
0	1966	321.202753818005	2
0	1967	321.202753818005	1
0	1971	322.098522933355	2
0	1972	322.098522933355	3
0	1973	322.267361598128	2
0	1975	322.681428998212	1
0	1977	322.825650018136	0
0	1980	322.951381685566	1
0	1981	322.951381685566	2
0	1982	323.702753818005	1
0	1983	323.702753818005	0
0	1987	324.171086149281	1
0	1988	324.171086149281	2
0	1989	324.767361598128	1
0	1991	325.181428998212	0
0	1997	325.612205409693	1
0	1998	326.202753818005	0
0	2004	326.699304319666	1
0	2005	327.267361598128	0
0	2008	327.673029665635	1
0	2009	327.673029665635	2
0	2010	327.681428998212	1
0	2012	328.112205409693	0
0	2015	328.62968608488	1
0	2016	328.62968608488	2
0	2017	328.702753818005	1
0	2020	329.040402848337	2
0	2021	329.040402848337	3
0	2022	329.199304319666	2
0	2024	329.767361598128	1
0	2026	330.181428998212	0
0	2029	330.239442208747	1
0	2030	330.239442208747	2
0	2031	330.612205409693	1
0	2034	331.149836968569	2
0	2035	331.149836968569	3
0	2036	331.202753818005	2
0	2039	331.676755442461	3
0	2040	331.676755442461	4
0	2041	331.699304319666	3
0	2043	332.267361598128	2
0	2045	332.681428998212	1
0	2047	333.112205409693	0
0	2053	334.066630498159	1
0	2054	334.199304319666	0
0	2060	334.7809342486	1
0	2061	335.181428998212	0
0	2067	335.688430818702	1
0	2068	336.566630498159	0
0	2081	337.900623133118	1
0	2082	338.188430818702	0
0	2088	339.480178226422	1
0	2089	340.066509427453	0
0	2095	340.124577872572	1
0	2096	340.400623133118	0
0	2099	340.661748513212	1
0	2100	340.661748513212	2
0	2101	340.688430818702	1
0	2104	341.360949946312	2
0	2105	341.360949946312	3
0	2106	341.980178226422	2
0	2108	342.566509427453	1
0	2110	342.624577872572	0
0	2123	344.783835808105	1
0	2124	345.066509427453	0
0	2144	349.387314999943	1
0	2145	349.476709651746	0
0	2151	350.345056923863	1
0	2152	351.226364893268	0
0	2179	355.487237111507	1
0	2180	355.799613513267	0
0	2186	357.33739960843	1
0	2187	357.761482603349	0
0	2193	357.896993657327	1
0	2194	357.987237111507	0
0	2200	358.796233425976	1
0	2201	359.83739960843	0
0	2204	359.956337443187	1
0	2205	359.956337443187	2
0	2206	360.261482603349	1
0	2208	360.396993657327	0
0	2218	361.932129985255	1
0	2219	361.932129985255	2
0	2220	362.33739960843	1
0	2222	362.761482603349	0
0	2228	363.485471876404	1
0	2230	364.092677388756	2
0	2231	364.092677388756	3
0	2232	364.240918798892	2
0	2233	364.240918798892	1
0	2236	364.83739960843	0
0	2242	365.66573208275	1
0	2243	365.985471876404	0
0	2246	366.588052632744	1
0	2247	366.588052632744	2
0	2248	366.740918798892	1
0	2249	366.740918798892	0
0	2270	370.604138000985	1
0	2271	371.62909101318	0
0	2291	374.497145769021	1
0	2292	375.060788314051	0
0	2298	375.776675353514	1
0	2299	376.378306111081	0
0	2319	379.868092507289	1
0	2320	380.12838456523	0
0	2326	381.121800292082	1
0	2328	381.726113696289	2
0	2329	381.726113696289	3
0	2330	381.867693800312	2
0	2331	381.867693800312	1
0	2335	382.166320204557	2
0	2336	382.166320204557	3
0	2337	382.368092507289	2
0	2340	382.421674705288	3
0	2341	382.421674705288	4
0	2342	382.62838456523	3
0	2344	383.621800292082	2
0	2347	383.914112959638	3
0	2348	383.914112959638	4
0	2349	384.367693800312	3
0	2350	384.367693800312	2
0	2354	384.706322669736	3
0	2355	384.706322669736	4
0	2356	384.868092507289	3
0	2359	385.115332533653	4
0	2360	385.115332533653	5
0	2361	385.12838456523	4
0	2363	386.121800292082	3
0	2366	386.530557747166	4
0	2367	386.530557747166	5
0	2368	386.867693800312	4
0	2369	386.867693800312	3
0	2372	387.368092507289	2
0	2374	387.62838456523	1
0	2377	388.046930575653	2
0	2378	388.046930575653	3
0	2379	388.621800292082	2
0	2382	389.092217014133	3
0	2383	389.092217014133	4
0	2384	389.367693800312	3
0	2385	389.367693800312	2
0	2389	389.424015551731	3
0	2390	389.424015551731	4
0	2391	389.868092507289	3
0	2393	390.12838456523	2
0	2396	390.96332177394	3
0	2397	390.96332177394	4
0	2398	391.121800292082	3
0	2400	391.867693800312	2
0	2401	391.867693800312	1
0	2405	392.24648284074	2
0	2406	392.24648284074	3
0	2407	392.368092507289	2
0	2409	392.62838456523	1
0	2411	393.621800292082	0
0	2414	393.626487176298	1
0	2415	393.626487176298	2
0	2416	394.367693800312	1
0	2417	394.367693800312	0
0	2421	394.42061175783	1
0	2422	394.42061175783	2
0	2423	394.868092507289	1
0	2425	395.12838456523	0
0	2428	395.79395388017	1
0	2429	395.79395388017	2
0	2430	396.121800292082	1
0	2432	396.867693800312	0
0	2459	402.031876831174	1
0	2460	402.574335880981	0
0	2480	405.727055886471	1
0	2481	405.801280474485	0
0	2487	407.177105223009	1
0	2488	407.197090463189	0
0	2501	409.409751920084	1
0	2502	409.677105223009	0
0	2508	410.44726741534	1
0	2510	411.420131808687	2
0	2511	411.420131808687	3
0	2512	411.490303020583	2
0	2513	411.490303020583	1
0	2516	411.909751920084	0
0	2522	412.625819722818	1
0	2523	412.94726741534	0
0	2536	414.996588419948	1
0	2537	415.125819722818	0
0	2543	416.143095167072	1
0	2544	416.569613291735	0
0	2557	417.756993356357	1
0	2558	418.643095167072	0
0	2561	418.726799052242	1
0	2562	418.726799052242	2
0	2563	419.069613291735	1
0	2566	419.887984455668	2
0	2567	419.887984455668	3
0	2568	420.085080766614	2
0	2569	420.085080766614	1
0	2572	420.256993356357	0
0	2575	420.929511348557	1
0	2576	420.929511348557	2
0	2577	421.143095167072	1
0	2579	421.569613291735	0
0	2582	422.27717487824	1
0	2583	422.27717487824	2
0	2584	422.585080766614	1
0	2585	422.585080766614	0
0	2589	422.713571705582	1
0	2590	422.713571705582	2
0	2591	422.756993356357	1
0	2594	422.977150003896	2
0	2595	422.977150003896	3
0	2596	423.643095167072	2
0	2599	423.722953953754	3
0	2600	423.722953953754	4
0	2601	424.069613291735	3
0	2604	424.798213673394	4
0	2605	424.798213673394	5
0	2606	425.085080766614	4
0	2607	425.085080766614	3
0	2610	425.256993356357	2
0	2612	426.143095167072	1
0	2615	426.272059830601	2
0	2616	426.272059830601	3
0	2617	426.569613291735	2
0	2619	427.585080766614	1
0	2620	427.585080766614	0
0	2627	427.800819772939	1
0	2628	428.643095167072	0
0	2631	429.03911940853	1
0	2632	429.03911940853	2
0	2633	429.069613291735	1
0	2636	429.865908302309	2
0	2637	429.865908302309	3
0	2638	430.085080766614	2
0	2639	430.085080766614	1
0	2642	430.300819772939	0
0	2645	430.441967341283	1
0	2646	430.441967341283	2
0	2647	431.143095167072	1
0	2649	431.569613291735	0
0	2652	431.796202484551	1
0	2653	431.796202484551	2
0	2654	432.585080766614	1
0	2655	432.585080766614	0
0	2662	433.131914479104	1
0	2664	433.406269476653	2
0	2665	433.406269476653	3
0	2666	433.643095167072	2
0	2668	434.069613291735	1
0	2671	434.078518634129	2
0	2672	434.078518634129	3
0	2673	435.085080766614	2
0	2674	435.085080766614	1
0	2678	435.296138070583	2
0	2679	435.296138070583	3
0	2680	435.631914479104	2
0	2682	436.143095167072	1
0	2684	436.569613291735	0
0	2687	436.890946374375	1
0	2688	436.890946374375	2
0	2689	437.585080766614	1
0	2690	437.585080766614	0
0	2694	438.007360890491	1
0	2695	438.007360890491	2
0	2696	438.131914479104	1
0	2699	438.466537528716	2
0	2700	438.466537528716	3
0	2701	438.643095167072	2
0	2703	439.069613291735	1
0	2705	440.085080766614	0
0	2711	440.238368026591	1
0	2712	440.631914479104	0
0	2715	441.132516350665	1
0	2716	441.132516350665	2
0	2717	441.143095167072	1
0	2720	441.466697592944	2
0	2721	441.466697592944	3
0	2722	441.569613291735	2
0	2725	441.72730424807	3
0	2726	441.72730424807	4
0	2727	442.585080766614	3
0	2729	442.738368026591	2
0	2731	443.131914479104	1
0	2734	443.215847541509	2
0	2735	443.215847541509	3
0	2736	443.643095167072	2
0	2738	444.069613291735	1
0	2741	444.814745528327	2
0	2742	444.814745528327	3
0	2743	445.085080766614	2
0	2745	445.238368026591	1
0	2747	445.631914479104	0
0	2767	449.099228284951	1
0	2768	449.310389225736	0
0	2788	452.239801833458	1
0	2789	453.394496714042	0
0	2795	453.78535624444	1
0	2796	454.346412703711	0
0	2802	454.415077229462	1
0	2803	454.739801833458	0
0	2806	455.266745769333	1
0	2807	455.266745769333	2
0	2809	455.736995222515	3
0	2810	455.736995222515	4
0	2811	455.894496714042	3
0	2813	456.28535624444	2
0	2815	456.846412703711	1
0	2817	456.915077229462	0
0	2823	457.570306078115	1
0	2824	458.394496714042	0
0	2827	458.687619518783	1
0	2828	458.687619518783	2
0	2829	458.78535624444	1
0	2831	459.346412703711	0
0	2837	459.985370754594	1
0	2838	460.070306078115	0
0	2851	462.142006970378	1
0	2852	462.485370754594	0
0	2858	463.337344890531	1
0	2859	463.89771580815	0
0	2865	464.014337644651	1
0	2866	464.642006970378	0
0	2872	465.534220161064	1
0	2873	465.837344890531	0
0	2900	470.45967215371	1
0	2901	470.602456221345	0
0	2907	471.492702830499	1
0	2909	472.369412215936	2
0	2910	472.369412215936	3
0	2911	472.578265397843	2
0	2912	472.578265397843	1
0	2915	472.95967215371	0
0	2921	473.138528122138	1
0	2922	473.992702830499	0
0	2925	474.76208411118	1
0	2926	474.76208411118	2
0	2927	475.078265397843	1
0	2928	475.078265397843	0
0	2939	475.870066302812	1
0	2940	475.870066302812	2
0	2941	476.492702830499	1
0	2944	476.736048100412	2
0	2945	476.736048100412	3
0	2946	477.578265397843	2
0	2947	477.578265397843	1
0	2951	477.821268276301	2
0	2952	477.821268276301	3
0	2954	477.955128726259	4
0	2955	477.955128726259	5
0	2957	478.024659474603	6
0	2958	478.024659474603	7
0	2959	478.189782491675	6
0	2960	478.189782491675	5
0	2963	478.992702830499	4
0	2966	479.597616011025	5
0	2967	479.597616011025	6
0	2968	480.078265397843	5
0	2969	480.078265397843	4
0	2973	480.280452743192	5
0	2974	480.280452743192	6
0	2976	480.37246262758	7
0	2977	480.37246262758	8
0	2978	480.689782491675	7
0	2979	480.689782491675	6
0	2982	481.492702830499	5
0	2985	481.832964860175	6
0	2986	481.832964860175	7
0	2987	482.578265397843	6
0	2988	482.578265397843	5
0	2991	483.189782491675	4
0	2992	483.189782491675	3
0	2996	483.205138687932	4
0	2997	483.205138687932	5
0	2998	483.992702830499	4
0	3000	485.078265397843	3
0	3001	485.078265397843	2
0	3005	485.270043575647	3
0	3006	485.270043575647	4