version 3
run MMc-45-20221127-11:38:42-21264
attr configname MMc
attr datetime 20221127-11:38:42
attr datetimef 20221127-113842
attr experiment MMc
attr inifile omnetpp.ini
attr iterationvars "$mean=uniform(0.5s, 1.5s), $dev=0.5*(uniform(0.5s, 1.5s)), $time=2.5, $num=5, $0=45732, $1=35463, $2=67563"
attr iterationvarsd mean=uniform(0.5s,_1.5s)/dev=0.5#2a(uniform(0.5s,_1.5s))/time=2.5/num=5/45732/35463/67563
attr iterationvarsf mean=uniform(0.5s,_1.5s),dev=0.5#2a(uniform(0.5s,_1.5s)),time=2.5,num=5,45732,35463,67563-
attr measurement "$mean=uniform(0.5s, 1.5s), $dev=0.5*(uniform(0.5s, 1.5s)), $time=2.5, $num=5, $0=45732, $1=35463, $2=67563"
attr network MMc
attr processid 21264
attr repetition 1
attr replication #1
attr resultdir results
attr runnumber 45
attr seedset 45
itervar dev "0.5*(uniform(0.5s, 1.5s))"
itervar mean "uniform(0.5s, 1.5s)"
itervar num 5
itervar time 2.5
config description "MMc module"
config network MMc
config MMc.source.interArrivalTime "truncnormal(uniform(0.5s, 1.5s), 0.5*(uniform(0.5s, 1.5s)))"
config MMc.mmc.serviceTime 2.5s
config MMc.mmc.c 5
config MMc.mmc.capacity 10000
config record-eventlog false
config **.scalar-recording true
config **.vector-recording true
config repeat 4
config seed-1-mt 45732
config seed-2-mt 35463
config seed-3-mt 67563
config output-vector-file MMc-5-2.5-results/1.vec
config output-scalar-file MMc-5-2.5-results/1.sca

vector 0 MMc.mmc queueLength:vector ETV
attr interpolationmode none
attr recordingmode vector
attr title "queue length"
vector 1 MMc.mmc util:vector ETV
attr interpolationmode none
attr recordingmode vector
attr title resources
0	0	0	0
0	9	12.207776371508	1
0	11	12.357657489484	2
0	12	12.357657489484	3
0	13	12.5	2
0	14	12.5	1
0	18	12.664706284571	2
0	19	12.664706284571	3
0	21	13.357192166677	4
0	22	13.357192166677	5
0	23	13.748412480912	4
0	24	13.748412480912	3
0	27	14.707776371508	2
0	29	15	1
0	30	15	0
0	34	15.241911394924	1
0	35	15.241911394924	2
0	36	16.248412480912	1
0	37	16.248412480912	0
0	41	16.976676084765	1
0	42	16.976676084765	2
0	43	17.207776371508	1
0	45	17.5	0
0	51	18.126305727772	1
0	52	18.748412480912	0
0	58	19.065861320325	1
0	59	19.707776371508	0
0	62	19.872223759322	1
0	63	19.872223759322	2
0	64	20	1
0	66	20.626305727772	0
0	69	21.109732652225	1
0	70	21.109732652225	2
0	71	21.248412480912	1
0	73	21.565861320325	0
0	76	22.198912798936	1
0	77	22.198912798936	2
0	78	22.207776371508	1
0	80	22.5	0
0	86	23.314371771729	1
0	87	23.748412480912	0
0	114	28.567693227324	1
0	115	28.919574681744	0
0	135	32.38889699344	1
0	136	32.791536806592	0
0	142	33.234017899021	1
0	143	34.062941838696	0
0	163	37.394851285246	1
0	164	37.405599408747	0
0	177	39.688313541876	1
0	178	39.894851285246	0
0	184	40.451465819848	1
0	186	40.941917275195	2
0	187	40.941917275195	3
0	188	41.186041567929	2
0	189	41.186041567929	1
0	192	42.188313541876	0
0	198	42.774596677756	1
0	199	42.951465819848	0
0	212	44.850212514222	1
0	214	45.061703086017	2
0	215	45.061703086017	3
0	216	45.274596677756	2
0	218	45.451465819848	1
0	220	46.195010153638	0
0	226	46.255209553045	1
0	228	47.134076454635	2
0	229	47.134076454635	3
0	230	47.350212514222	2
0	232	47.774596677756	1
0	235	47.872662028423	2
0	236	47.872662028423	3
0	237	47.951465819848	2
0	239	48.695010153638	1
0	241	48.755209553045	0
0	244	49.129781993524	1
0	245	49.129781993524	2
0	246	49.850212514222	1
0	248	50.274596677756	0
0	254	50.796841552689	1
0	255	51.195010153638	0
0	261	52.080631435649	1
0	262	52.350212514222	0
0	268	52.867615264495	1
0	270	53.244870610861	2
0	271	53.244870610861	3
0	272	53.296841552689	2
0	274	53.695010153638	1
0	276	54.580631435649	0
0	282	54.962941738971	1
0	283	55.367615264495	0
0	303	58.963067589621	1
0	304	59.172425139238	0
0	310	59.911158792181	1
0	311	60.132838051536	0
0	317	60.916161991635	1
0	318	61.463067589621	0
0	324	62.116775195234	1
0	325	62.411158792181	0
0	352	67.5497397386	1
0	353	68.045135137675	0
0	359	68.145466103639	1
0	360	68.953289018878	0
0	366	69.702886102326	1
0	367	70.0497397386	0
0	370	70.475969394299	1
0	371	70.475969394299	2
0	372	70.545135137675	1
0	374	70.645466103639	0
0	387	72.901103562237	1
0	388	73.045135137675	0
0	394	73.865094821007	1
0	396	74.405435789302	2
0	397	74.405435789302	3
0	398	75.099883828039	2
0	399	75.099883828039	1
0	403	75.343800533811	2
0	404	75.343800533811	3
0	405	75.401103562237	2
0	407	75.545135137675	1
0	410	75.666263561806	2
0	411	75.666263561806	3
0	413	75.669374407524	4
0	414	75.669374407524	5
0	415	76.365094821007	4
0	418	77.078730449278	5
0	419	77.078730449278	6
0	420	77.599883828039	5
0	421	77.599883828039	4
0	424	77.901103562237	3
0	426	78.045135137675	2
0	429	78.365731701821	3
0	430	78.365731701821	4
0	431	78.865094821007	3
0	434	79.236897820893	4
0	435	79.236897820893	5
0	436	80.099883828039	4
0	437	80.099883828039	3
0	440	80.401103562237	2
0	442	80.545135137675	1
0	445	80.765742574844	2
0	446	80.765742574844	3
0	447	81.365094821007	2
0	450	81.779390921533	3
0	451	81.779390921533	4
0	453	82.53065307525	5
0	454	82.53065307525	6
0	455	82.599883828039	5
0	456	82.599883828039	4
0	459	82.901103562237	3
0	461	83.045135137675	2
0	464	83.44017856962	3
0	465	83.44017856962	4
0	466	83.865094821007	3
0	469	84.513545488462	4
0	470	84.513545488462	5
0	471	85.099883828039	4
0	472	85.099883828039	3
0	475	85.401103562237	2
0	477	85.545135137675	1
0	480	86.081549447029	2
0	481	86.081549447029	3
0	482	86.365094821007	2
0	484	87.599883828039	1
0	485	87.599883828039	0
0	499	90.086698804004	1
0	500	90.099883828039	0
0	513	91.449490306195	1
0	515	92.342784264774	2
0	516	92.342784264774	3
0	517	92.586698804004	2
0	519	92.599883828039	1
0	522	93.547019208017	2
0	523	93.547019208017	3
0	524	93.872335173056	2
0	525	93.872335173056	1
0	528	93.949490306195	0
0	538	95.519140277773	1
0	539	95.519140277773	2
0	541	95.948877456531	3
0	542	95.948877456531	4
0	543	96.372335173056	3
0	544	96.372335173056	2
0	547	96.449490306195	1
0	550	97.122331517038	2
0	551	97.122331517038	3
0	552	97.628341842848	2
0	553	97.628341842848	1
0	557	97.9411870277	2
0	558	97.9411870277	3
0	559	98.872335173056	2
0	560	98.872335173056	1
0	563	98.949490306195	0
0	566	99.00139116501	1
0	567	99.00139116501	2
0	568	100.128341842848	1
0	569	100.128341842848	0
0	573	100.746229748197	1
0	574	100.746229748197	2
0	575	101.372335173056	1
0	576	101.372335173056	0
0	583	101.85252317827	1
0	584	102.628341842848	0
0	590	102.763133019027	1
0	591	103.872335173056	0
0	660	118.776584387374	1
0	661	119.315739407359	0
0	681	123.306435154587	1
0	682	123.508126791239	0
0	702	126.479750334055	1
0	704	127.249614495937	2
0	705	127.249614495937	3
0	706	127.45259832308	2
0	707	127.45259832308	1
0	711	128.021894216097	2
0	712	128.021894216097	3
0	713	128.406267291449	2
0	714	128.406267291449	1
0	717	128.979750334055	0
0	720	129.047422209976	1
0	721	129.047422209976	2
0	722	129.95259832308	1
0	723	129.95259832308	0
0	727	130.173566685041	1
0	728	130.173566685041	2
0	730	130.842891453788	3
0	731	130.842891453788	4
0	732	130.906267291449	3
0	733	130.906267291449	2
0	737	131.185107267266	3
0	738	131.185107267266	4
0	739	131.479750334055	3
0	741	132.45259832308	2
0	742	132.45259832308	1
0	745	133.406267291449	0
0	751	133.657498313387	1
0	752	133.979750334055	0
0	755	134.66073638571	1
0	756	134.66073638571	2
0	757	134.95259832308	1
0	758	134.95259832308	0
0	786	139.943527743662	1
0	788	140.039016664591	2
0	789	140.039016664591	3
0	790	140.258874569076	2
0	791	140.258874569076	1
0	795	140.898735449006	2
0	796	140.898735449006	3
0	798	141.295272671858	4
0	799	141.295272671858	5
0	800	141.592376362788	4
0	801	141.592376362788	3
0	805	141.940645743788	4
0	806	141.940645743788	5
0	807	142.443527743662	4
0	810	142.576234740951	5
0	811	142.576234740951	6
0	812	142.758874569076	5
0	813	142.758874569076	4
0	817	143.34923162865	5
0	818	143.34923162865	6
0	819	144.092376362788	5
0	820	144.092376362788	4
0	824	144.122264647763	5
0	825	144.122264647763	6
0	826	144.943527743662	5
0	828	145.258874569076	4
0	829	145.258874569076	3
0	833	145.922873640879	4
0	834	145.922873640879	5
0	835	146.592376362788	4
0	836	146.592376362788	3
0	839	147.443527743662	2
0	842	147.632331464241	3
0	843	147.632331464241	4
0	844	147.758874569076	3
0	845	147.758874569076	2
0	849	148.189787834907	3
0	850	148.189787834907	4
0	851	149.092376362788	3
0	852	149.092376362788	2
0	855	149.943527743662	1
0	858	150.007741448676	2
0	859	150.007741448676	3
0	860	150.258874569076	2
0	861	150.258874569076	1
0	864	151.592376362788	0
0	870	151.766162535274	1
0	871	152.443527743662	0
0	881	153.114005878772	1
0	882	153.114005878772	2
0	884	153.986961360577	3
0	885	153.986961360577	4
0	886	154.092376362788	3
0	888	154.266162535274	2
0	890	154.943527743662	1
0	893	155.322443724475	2
0	894	155.322443724475	3
0	895	155.437603321543	2
0	896	155.437603321543	1
0	899	156.592376362788	0
0	902	156.605921574465	1
0	903	156.605921574465	2
0	904	156.766162535274	1
0	906	157.443527743662	0
0	909	157.470255274602	1
0	910	157.470255274602	2
0	911	157.937603321543	1
0	912	157.937603321543	0
0	916	158.751252062717	1
0	917	158.751252062717	2
0	918	159.092376362788	1
0	920	159.266162535274	0
0	923	159.880814680746	1
0	924	159.880814680746	2
0	925	159.943527743662	1
0	927	160.437603321543	0
0	933	161.174560886156	1
0	934	161.592376362788	0
0	1003	174.58965522012	1
0	1004	175.17605463848	0
0	1010	175.45233576903	1
0	1012	176.138700769079	2
0	1013	176.138700769079	3
0	1014	176.174822661517	2
0	1015	176.174822661517	1
0	1018	177.08965522012	0
0	1021	177.270971478445	1
0	1022	177.270971478445	2
0	1023	177.67605463848	1
0	1026	177.903353795648	2
0	1027	177.903353795648	3
0	1028	177.95233576903	2
0	1030	178.674822661517	1
0	1031	178.674822661517	0
0	1038	179.70538561523	1
0	1040	179.727833489312	2
0	1041	179.727833489312	3
0	1043	180.114233329542	4
0	1044	180.114233329542	5
0	1045	180.17605463848	4
0	1047	180.45233576903	3
0	1050	180.880841628335	4
0	1051	180.880841628335	5
0	1052	181.174822661517	4
0	1053	181.174822661517	3
0	1056	182.20538561523	2
0	1058	182.67605463848	1
0	1061	182.738856969896	2
0	1062	182.738856969896	3
0	1063	182.95233576903	2
0	1065	183.674822661517	1
0	1066	183.674822661517	0
0	1070	184.041957148723	1
0	1071	184.041957148723	2
0	1072	184.70538561523	1
0	1074	185.17605463848	0
0	1077	185.187362801772	1
0	1078	185.187362801772	2
0	1079	185.45233576903	1
0	1082	185.969765537322	2
0	1083	185.969765537322	3
0	1084	186.174822661517	2
0	1085	186.174822661517	1
0	1089	187.036920590917	2
0	1090	187.036920590917	3
0	1091	187.20538561523	2
0	1093	187.67605463848	1
0	1096	187.857071458336	2
0	1097	187.857071458336	3
0	1098	187.95233576903	2
0	1100	188.674822661517	1
0	1101	188.674822661517	0
0	1105	189.259022370067	1
0	1106	189.259022370067	2
0	1107	189.70538561523	1
0	1109	190.17605463848	0
0	1115	191.049437984428	1
0	1116	191.174822661517	0
0	1122	191.527196907864	1
0	1123	192.20538561523	0
0	1164	200.121360934199	1
0	1165	200.539919060663	0
0	1171	200.929091146814	1
0	1173	202.244075158439	2
0	1174	202.244075158439	3
0	1175	202.306571016079	2
0	1176	202.306571016079	1
0	1179	202.621360934199	0
0	1182	202.743872368546	1
0	1183	202.743872368546	2
0	1184	203.039919060663	1
0	1187	203.316671558797	2
0	1188	203.316671558797	3
0	1189	203.429091146814	2
0	1192	204.586858093158	3
0	1193	204.586858093158	4
0	1194	204.806571016079	3
0	1195	204.806571016079	2
0	1198	205.121360934199	1
0	1201	205.389393368927	2
0	1202	205.389393368927	3
0	1203	205.539919060663	2
0	1205	205.929091146814	1
0	1208	206.422413072957	2
0	1209	206.422413072957	3
0	1211	206.65781320425	4
0	1212	206.65781320425	5
0	1213	207.306571016079	4
0	1214	207.306571016079	3
0	1217	207.621360934199	2
0	1220	207.961901886277	3
0	1221	207.961901886277	4
0	1222	208.039919060663	3
0	1224	208.429091146814	2
0	1227	209.197895923057	3
0	1228	209.197895923057	4
0	1229	209.806571016079	3
0	1230	209.806571016079	2
0	1233	210.121360934199	1
0	1236	210.29872235751	2
0	1237	210.29872235751	3
0	1238	210.539919060663	2
0	1240	210.929091146814	1
0	1243	211.021003589806	2
0	1244	211.021003589806	3
0	1245	212.306571016079	2
0	1246	212.306571016079	1
0	1249	212.621360934199	0
0	1255	213.22062560068	1
0	1256	213.429091146814	0
0	1269	215.397857443253	1
0	1270	215.72062560068	0
0	1273	215.745397047171	1
0	1274	215.745397047171	2
0	1275	215.929091146814	1
0	1278	216.699707813553	2
0	1279	216.699707813553	3
0	1280	217.743191000875	2
0	1281	217.743191000875	1
0	1284	217.897857443253	0
0	1287	217.945552478817	1
0	1288	217.945552478817	2
0	1289	218.22062560068	1
0	1291	218.429091146814	0
0	1294	218.81215899487	1
0	1295	218.81215899487	2
0	1297	219.115332070866	3
0	1298	219.115332070866	4
0	1300	220.194148926973	5
0	1301	220.194148926973	6
0	1302	220.243191000875	5
0	1303	220.243191000875	4
0	1306	220.397857443253	3
0	1308	220.72062560068	2
0	1310	220.929091146814	1
0	1313	222.142897179853	2
0	1314	222.142897179853	3
0	1315	222.743191000875	2
0	1316	222.743191000875	1
0	1319	222.897857443253	0
0	1329	224.677848885113	1
0	1330	224.677848885113	2
0	1331	225.243191000875	1
0	1332	225.243191000875	0
0	1346	227.393412994139	1
0	1347	227.743191000875	0
0	1367	231.200745474195	1
0	1369	231.87970811612	2
0	1370	231.87970811612	3
0	1371	231.921634452257	2
0	1372	231.921634452257	1
0	1375	232.953749330608	0
0	1381	233.532628780557	1
0	1382	233.700745474195	0
0	1395	235.627217670863	1
0	1397	236.009879064245	2
0	1398	236.009879064245	3
0	1399	236.032628780557	2
0	1401	236.200745474195	1
0	1404	236.971843591509	2
0	1405	236.971843591509	3
0	1406	236.983937331579	2
0	1407	236.983937331579	1
0	1411	238.114012255074	2
0	1412	238.114012255074	3
0	1413	238.127217670863	2
0	1415	238.532628780557	1
0	1417	238.700745474195	0
0	1420	239.348039044069	1
0	1421	239.348039044069	2
0	1422	239.483937331579	1
0	1423	239.483937331579	0
0	1430	240.830027774424	1
0	1431	241.032628780557	0
0	1451	244.252663269324	1
0	1452	244.89680237235	0
0	1458	245.86320805319	1
0	1459	246.27107403998	0
0	1472	248.030905114736	1
0	1473	248.36320805319	0
0	1476	248.478068497689	1
0	1477	248.478068497689	2
0	1478	248.77107403998	1
0	1480	249.338742237813	0
0	1486	249.694956377658	1
0	1487	250.530905114736	0
0	1493	250.995322265932	1
0	1494	251.27107403998	0
0	1497	251.740725439333	1
0	1498	251.740725439333	2
0	1499	251.838742237813	1
0	1501	252.194956377658	0
0	1507	253.361261690687	1
0	1508	253.495322265932	0
0	1514	254.152034122899	1
0	1515	254.338742237813	0
0	1521	254.931386181722	1
0	1523	255.099815979041	2
0	1524	255.099815979041	3
0	1525	255.861261690687	2
0	1527	255.995322265932	1
0	1530	256.361732202558	2
0	1531	256.361732202558	3
0	1532	256.652034122899	2
0	1534	256.838742237813	1
0	1536	257.431386181722	0
0	1542	258.395620204866	1
0	1543	258.495322265932	0
0	1556	260.733829802438	1
0	1557	260.895620204866	0
0	1563	261.884423901589	1
0	1564	262.010202302553	0
0	1570	262.887139671006	1
0	1571	263.233829802438	0
0	1591	265.935724421435	1
0	1593	266.124566604029	2
0	1594	266.124566604029	3
0	1596	267.22347749701	4
0	1597	267.22347749701	5
0	1598	267.595479205866	4
0	1599	267.595479205866	3
0	1602	267.922876888779	2
0	1603	267.922876888779	1
0	1606	268.435724421435	0
0	1609	268.623724071982	1
0	1610	268.623724071982	2
0	1612	269.784630930317	3
0	1613	269.784630930317	4
0	1614	270.095479205866	3
0	1615	270.095479205866	2
0	1618	270.422876888779	1
0	1619	270.422876888779	0
0	1623	270.712820134786	1
0	1624	270.712820134786	2
0	1625	270.935724421435	1
0	1627	272.595479205866	0
0	1644	274.813880721593	1
0	1645	274.813880721593	2
0	1646	275.095479205866	1
0	1649	275.599124785144	2
0	1650	275.599124785144	3
0	1651	275.610315600351	2
0	1652	275.610315600351	1
0	1656	276.48774066611	2
0	1657	276.48774066611	3
0	1658	276.701692393579	2
0	1659	276.701692393579	1
0	1663	277.32066905946	2
0	1664	277.32066905946	3
0	1665	277.595479205866	2
0	1667	278.110315600351	1
0	1668	278.110315600351	0
0	1672	278.309261480425	1
0	1673	278.309261480425	2
0	1674	279.201692393579	1
0	1675	279.201692393579	0
0	1679	279.516334954552	1
0	1680	279.516334954552	2
0	1681	280.095479205866	1
0	1684	280.467829902726	2
0	1685	280.467829902726	3
0	1686	280.610315600351	2
0	1687	280.610315600351	1
0	1691	281.256079620743	2
0	1692	281.256079620743	3
0	1694	281.461371638743	4
0	1695	281.461371638743	5
0	1696	281.701692393579	4
0	1697	281.701692393579	3
0	1701	282.310080842824	4
0	1702	282.310080842824	5
0	1703	282.595479205866	4
0	1705	283.110315600351	3
0	1706	283.110315600351	2
0	1710	283.21815302502	3
0	1711	283.21815302502	4
0	1712	284.201692393579	3
0	1713	284.201692393579	2
0	1717	284.484809538554	3
0	1718	284.484809538554	4
0	1719	285.095479205866	3
0	1721	285.610315600351	2
0	1722	285.610315600351	1
0	1726	286.168439936694	2
0	1727	286.168439936694	3
0	1729	286.177814677965	4
0	1730	286.177814677965	5
0	1732	286.644378327117	6
0	1733	286.644378327117	7
0	1734	286.701692393579	6
0	1735	286.701692393579	5
0	1738	287.595479205866	4
0	1741	287.699279244486	5
0	1742	287.699279244486	6
0	1743	288.110315600351	5
0	1744	288.110315600351	4
0	1748	288.881692100586	5
0	1749	288.881692100586	6
0	1750	289.201692393579	5
0	1751	289.201692393579	4
0	1755	289.346985795371	5
0	1756	289.346985795371	6
0	1757	290.095479205866	5
0	1760	290.38664012995	6
0	1761	290.38664012995	7
0	1762	290.610315600351	6
0	1763	290.610315600351	5
0	1767	291.595470893029	6
0	1768	291.595470893029	7
0	1769	291.701692393579	6
0	1770	291.701692393579	5
0	1774	291.972302999055	6
0	1775	291.972302999055	7
0	1777	292.224257230282	8
0	1778	292.224257230282	9
0	1779	292.595479205866	8
0	1782	292.755773888757	9
0	1783	292.755773888757	10
0	1784	293.110315600351	9
0	1785	293.110315600351	8
0	1789	293.304613214042	9
0	1790	293.304613214042	10
0	1791	294.201692393579	9
0	1792	294.201692393579	8
0	1796	294.509824819144	9
0	1797	294.509824819144	10
0	1798	295.095479205866	9
0	1801	295.483075031938	10
0	1802	295.483075031938	11
0	1804	295.598730916162	12
0	1805	295.598730916162	13
0	1806	295.610315600351	12
0	1807	295.610315600351	11
0	1810	296.701692393579	10
0	1811	296.701692393579	9
0	1815	297.393877978224	10
0	1816	297.393877978224	11
0	1817	297.595479205866	10
0	1820	298.064498059644	11
0	1821	298.064498059644	12
0	1822	298.110315600351	11
0	1823	298.110315600351	10
0	1827	298.888906741575	11
0	1828	298.888906741575	12
0	1829	299.201692393579	11
0	1830	299.201692393579	10
0	1834	299.400559211806	11
0	1835	299.400559211806	12
0	1836	300.095479205866	11
0	1838	300.610315600351	10
0	1839	300.610315600351	9
0	1843	301.519058975397	10
0	1844	301.519058975397	11
0	1845	301.701692393579	10
0	1846	301.701692393579	9
0	1849	302.595479205866	8
0	1852	302.895262464109	9
0	1853	302.895262464109	10
0	1854	303.110315600351	9
0	1855	303.110315600351	8
0	1859	303.214821153311	9
0	1860	303.214821153311	10
0	1861	304.201692393579	9
0	1862	304.201692393579	8
0	1866	304.608910432367	9
0	1867	304.608910432367	10
0	1868	305.095479205866	9
0	1871	305.384723639075	10
0	1872	305.384723639075	11
0	1873	305.610315600351	10
0	1874	305.610315600351	9
0	1877	306.701692393579	8
0	1878	306.701692393579	7
0	1882	307.361719478621	8
0	1883	307.361719478621	9
0	1884	307.595479205866	8
0	1887	307.806919313244	9
0	1888	307.806919313244	10
0	1889	308.110315600351	9
0	1890	308.110315600351	8
0	1894	308.907247239488	9
0	1895	308.907247239488	10
0	1896	309.201692393579	9
0	1897	309.201692393579	8
0	1901	310.094501074528	9
0	1902	310.094501074528	10
0	1903	310.095479205866	9
0	1905	310.610315600351	8
0	1906	310.610315600351	7
0	1910	311.55611360781	8
0	1911	311.55611360781	9
0	1912	311.701692393579	8
0	1913	311.701692393579	7
0	1916	312.595479205866	6
0	1919	312.983072747128	7
0	1920	312.983072747128	8
0	1921	313.110315600351	7
0	1922	313.110315600351	6
0	1926	313.428503229015	7
0	1927	313.428503229015	8
0	1928	314.201692393579	7
0	1929	314.201692393579	6
0	1933	314.389032402744	7
0	1934	314.389032402744	8
0	1936	314.689682199206	9
0	1937	314.689682199206	10
0	1939	315.067153224309	11
0	1940	315.067153224309	12
0	1941	315.095479205866	11
0	1943	315.610315600351	10
0	1944	315.610315600351	9
0	1948	316.008676475868	10
0	1949	316.008676475868	11
0	1951	316.426498272131	12
0	1952	316.426498272131	13
0	1953	316.701692393579	12
0	1954	316.701692393579	11
0	1958	317.432822612437	12
0	1959	317.432822612437	13
0	1961	317.517710474511	14
0	1962	317.517710474511	15
0	1963	317.595479205866	14
0	1965	318.110315600351	13
0	1966	318.110315600351	12
0	1970	318.573728958118	13
0	1971	318.573728958118	14
0	1973	319.111800231652	15
0	1974	319.111800231652	16
0	1975	319.201692393579	15
0	1976	319.201692393579	14
0	1979	320.095479205866	13
0	1982	320.495779923853	14
0	1983	320.495779923853	15
0	1984	320.610315600351	14
0	1985	320.610315600351	13
0	1989	321.632181951645	14
0	1990	321.632181951645	15
0	1991	321.701692393579	14
0	1992	321.701692393579	13
0	1996	322.29043260448	14
0	1997	322.29043260448	15
0	1998	322.595479205866	14
0	2000	323.110315600351	13
0	2001	323.110315600351	12
0	2005	323.142469750598	13
0	2006	323.142469750598	14
0	2008	323.515112657733	15
0	2009	323.515112657733	16
0	2010	324.201692393579	15
0	2011	324.201692393579	14
0	2015	324.653883991441	15
0	2016	324.653883991441	16
0	2018	325.075344931335	17
0	2019	325.075344931335	18
0	2020	325.095479205866	17
0	2022	325.610315600351	16
0	2023	325.610315600351	15
0	2027	326.188055537353	16
0	2028	326.188055537353	17
0	2029	326.701692393579	16
0	2030	326.701692393579	15
0	2034	326.90012991229	16
0	2035	326.90012991229	17
0	2036	327.595479205866	16
0	2038	328.110315600351	15
0	2039	328.110315600351	14
0	2043	328.445439366098	15
0	2044	328.445439366098	16
0	2045	329.201692393579	15
0	2046	329.201692393579	14
0	2050	329.662596677241	15
0	2051	329.662596677241	16
0	2052	330.095479205866	15
0	2054	330.610315600351	14
0	2055	330.610315600351	13
0	2059	331.582745537095	14
0	2060	331.582745537095	15
0	2061	331.701692393579	14
0	2062	331.701692393579	13
0	2065	332.595479205866	12
0	2068	333.001934945872	13
0	2069	333.001934945872	14
0	2070	333.110315600351	13
0	2071	333.110315600351	12
0	2075	333.721305081389	13
0	2076	333.721305081389	14
0	2078	334.097764237541	15
0	2079	334.097764237541	16
0	2080	334.201692393579	15
0	2081	334.201692393579	14
0	2084	335.095479205866	13
0	2087	335.580741074337	14
0	2088	335.580741074337	15
0	2089	335.610315600351	14
0	2090	335.610315600351	13
0	2094	336.555094962947	14
0	2095	336.555094962947	15
0	2096	336.701692393579	14
0	2097	336.701692393579	13
0	2101	337.280324247509	14
0	2102	337.280324247509	15
0	2103	337.595479205866	14
0	2106	338.070597932831	15
0	2107	338.070597932831	16
0	2108	338.110315600351	15
0	2109	338.110315600351	14
0	2113	338.999688105339	15
0	2114	338.999688105339	16
0	2115	339.201692393579	15
0	2116	339.201692393579	14
0	2120	340.064428598569	15
0	2121	340.064428598569	16
0	2122	340.095479205866	15
0	2124	340.610315600351	14
0	2125	340.610315600351	13
0	2128	341.701692393579	12
0	2129	341.701692393579	11
0	2133	341.855972766952	12
0	2134	341.855972766952	13
0	2135	342.595479205866	12
0	2137	343.110315600351	11
0	2138	343.110315600351	10
0	2142	343.11976302653	11
0	2143	343.11976302653	12
0	2145	343.254612775191	13
0	2146	343.254612775191	14
0	2148	344.048840230264	15
0	2149	344.048840230264	16
0	2150	344.201692393579	15
0	2151	344.201692393579	14
0	2155	344.831777612074	15
0	2156	344.831777612074	16
0	2157	345.095479205866	15
0	2159	345.610315600351	14
0	2160	345.610315600351	13
0	2164	345.93312272169	14
0	2165	345.93312272169	15
0	2166	346.701692393579	14
0	2167	346.701692393579	13
0	2170	347.595479205866	12
0	2172	348.110315600351	11
0	2173	348.110315600351	10
0	2177	348.395394794881	11
0	2178	348.395394794881	12
0	2179	349.201692393579	11
0	2180	349.201692393579	10
0	2183	350.095479205866	9
0	2186	350.232753293775	10
0	2187	350.232753293775	11
0	2188	350.610315600351	10
0	2189	350.610315600351	9
0	2192	351.701692393579	8
0	2193	351.701692393579	7
0	2197	351.823717055675	8
0	2198	351.823717055675	9
0	2199	352.595479205866	8
0	2201	353.110315600351	7
0	2202	353.110315600351	6
0	2206	353.63383792203	7
0	2207	353.63383792203	8
0	2208	354.201692393579	7
0	2209	354.201692393579	6
0	2213	354.556249228888	7
0	2214	354.556249228888	8
0	2215	355.095479205866	7
0	2218	355.257632660214	8
0	2219	355.257632660214	9
0	2220	355.610315600351	8
0	2221	355.610315600351	7
0	2224	356.701692393579	6
0	2225	356.701692393579	5
0	2229	357.272589841082	6
0	2230	357.272589841082	7
0	2231	357.595479205866	6
0	2233	358.110315600351	5
0	2234	358.110315600351	4
0	2238	358.793289028607	5
0	2239	358.793289028607	6
0	2240	359.201692393579	5
0	2241	359.201692393579	4
0	2245	360.079018764345	5
0	2246	360.079018764345	6
0	2247	360.095479205866	5
0	2249	360.610315600351	4
0	2250	360.610315600351	3
0	2253	361.701692393579	2
0	2254	361.701692393579	1
0	2258	361.91826584383	2
0	2259	361.91826584383	3
0	2260	362.595479205866	2
0	2262	363.110315600351	1
0	2263	363.110315600351	0
0	2267	363.520833614162	1
0	2268	363.520833614162	2
0	2269	364.201692393579	1
0	2270	364.201692393579	0
0	2274	364.658850820369	1
0	2275	364.658850820369	2
0	2276	365.095479205866	1
0	2278	365.610315600351	0
0	2284	365.736806612013	1
0	2285	366.701692393579	0
0	2305	370.129476893712	1
0	2306	370.252930447112	0
0	2326	373.291520556411	1
0	2327	373.970040991575	0
0	2333	374.855107000908	1
0	2334	375.585449251897	0
0	2347	376.672992446995	1
0	2349	376.897106976226	2
0	2350	376.897106976226	3
0	2351	377.355107000908	2
0	2353	378.085449251897	1
0	2355	378.607984803221	0
0	2361	378.756054121295	1
0	2362	379.172992446995	0
0	2365	379.63052011213	1
0	2366	379.63052011213	2
0	2367	379.855107000908	1
0	2369	380.585449251897	0
0	2372	381.038368687004	1
0	2373	381.038368687004	2
0	2374	381.107984803221	1
0	2376	381.256054121295	0
0	2389	383.193494211586	1
0	2390	383.607984803221	0
0	2410	387.1454630627	1
0	2411	387.72038484627	0
0	2417	388.068171771231	1
0	2419	388.300443983344	2
0	2420	388.300443983344	3
0	2421	388.833616826714	2
0	2422	388.833616826714	1
0	2426	389.179520944781	2
0	2427	389.179520944781	3
0	2428	389.6454630627	2
0	2431	390.086351819097	3
0	2432	390.086351819097	4
0	2433	390.22038484627	3
0	2435	390.568171771231	2
0	2437	391.333616826714	1
0	2438	391.333616826714	0
0	2442	391.591112307309	1
0	2443	391.591112307309	2
0	2445	391.821873559186	3
0	2446	391.821873559186	4
0	2447	392.1454630627	3
0	2449	392.72038484627	2
0	2451	393.068171771231	1
0	2454	393.796978607336	2
0	2455	393.796978607336	3
0	2456	393.833616826714	2
0	2457	393.833616826714	1
0	2461	394.479922252477	2
0	2462	394.479922252477	3
0	2463	394.6454630627	2
0	2466	394.664753419898	3
0	2467	394.664753419898	4
0	2468	395.22038484627	3
0	2471	395.400906632718	4
0	2472	395.400906632718	5
0	2473	395.568171771231	4
0	2476	396.088174083288	5
0	2477	396.088174083288	6
0	2478	396.333616826714	5
0	2479	396.333616826714	4
0	2483	396.41741047715	5
0	2484	396.41741047715	6
0	2485	397.1454630627	5
0	2488	397.600997485972	6
0	2489	397.600997485972	7
0	2490	397.72038484627	6
0	2492	398.068171771231	5
0	2494	398.833616826714	4
0	2495	398.833616826714	3
0	2499	398.849334275308	4
0	2500	398.849334275308	5
0	2501	399.6454630627	4
0	2503	400.22038484627	3
0	2506	400.344519921152	4
0	2507	400.344519921152	5
0	2508	400.568171771231	4
0	2510	401.333616826714	3
0	2511	401.333616826714	2
0	2515	401.421722117192	3
0	2516	401.421722117192	4
0	2517	402.1454630627	3
0	2520	402.360676606458	4
0	2521	402.360676606458	5
0	2522	402.72038484627	4
0	2524	403.068171771231	3
0	2527	403.5281675178	4
0	2528	403.5281675178	5
0	2530	403.7998179691	6
0	2531	403.7998179691	7
0	2532	403.833616826714	6
0	2533	403.833616826714	5
0	2536	404.6454630627	4
0	2539	405.047809357861	5
0	2540	405.047809357861	6
0	2541	405.22038484627	5
0	2543	405.568171771231	4
0	2545	406.333616826714	3
0	2546	406.333616826714	2
0	2550	406.405953226443	3
0	2551	406.405953226443	4
0	2552	407.1454630627	3
0	2554	407.72038484627	2
0	2557	407.881932530746	3
0	2558	407.881932530746	4
0	2559	408.068171771231	3
0	2561	408.833616826714	2
0	2562	408.833616826714	1
0	2566	409.244745476176	2
0	2567	409.244745476176	3
0	2568	409.6454630627	2
0	2570	410.22038484627	1
0	2573	410.476027757997	2
0	2574	410.476027757997	3
0	2575	410.568171771231	2
0	2577	411.333616826714	1
0	2578	411.333616826714	0
0	2585	412.259591109726	1
0	2587	412.665757460615	2
0	2588	412.665757460615	3
0	2589	412.72038484627	2
0	2592	413.030401078709	3
0	2593	413.030401078709	4
0	2594	413.068171771231	3
0	2596	413.833616826714	2
0	2597	413.833616826714	1
0	2601	414.667823970219	2
0	2602	414.667823970219	3
0	2603	414.759591109726	2
0	2605	415.22038484627	1
0	2607	415.568171771231	0
0	2610	416.109990598349	1
0	2611	416.109990598349	2
0	2612	416.333616826714	1
0	2613	416.333616826714	0
0	2617	416.944110407044	1
0	2618	416.944110407044	2
0	2619	417.259591109726	1
0	2622	417.656756070664	2
0	2623	417.656756070664	3
0	2624	417.72038484627	2
0	2626	418.068171771231	1
0	2629	418.2908938765	2
0	2630	418.2908938765	3
0	2631	418.833616826714	2
0	2632	418.833616826714	1
0	2636	419.346792529409	2
0	2637	419.346792529409	3
0	2639	419.442008043184	4
0	2640	419.442008043184	5
0	2641	419.759591109726	4
0	2643	420.22038484627	3
0	2645	420.568171771231	2
0	2648	420.949593262289	3
0	2649	420.949593262289	4
0	2650	421.333616826714	3
0	2651	421.333616826714	2
0	2655	421.828824298355	3
0	2656	421.828824298355	4
0	2657	422.259591109726	3
0	2660	422.520145869054	4
0	2661	422.520145869054	5
0	2662	422.72038484627	4
0	2664	423.068171771231	3
0	2667	423.276663119673	4
0	2668	423.276663119673	5
0	2669	423.833616826714	4
0	2670	423.833616826714	3
0	2673	424.759591109726	2
0	2676	425.175225450931	3
0	2677	425.175225450931	4
0	2678	425.22038484627	3
0	2681	425.455395362672	4
0	2682	425.455395362672	5
0	2683	425.568171771231	4
0	2686	425.898450934861	5
0	2687	425.898450934861	6
0	2688	426.333616826714	5
0	2689	426.333616826714	4
0	2692	427.259591109726	3
0	2694	427.72038484627	2
0	2697	427.8367810086	3
0	2698	427.8367810086	4
0	2699	428.068171771231	3
0	2702	428.693478465616	4
0	2703	428.693478465616	5
0	2704	428.833616826714	4
0	2705	428.833616826714	3
0	2709	428.980926555235	4