version 3
run MMc-46-20221127-11:38:42-21264
attr configname MMc
attr datetime 20221127-11:38:42
attr datetimef 20221127-113842
attr experiment MMc
attr inifile omnetpp.ini
attr iterationvars "$mean=uniform(0.5s, 1.5s), $dev=0.5*(uniform(0.5s, 1.5s)), $time=2.5, $num=5, $0=47853, $1=24674, $2=96433"
attr iterationvarsd mean=uniform(0.5s,_1.5s)/dev=0.5#2a(uniform(0.5s,_1.5s))/time=2.5/num=5/47853/24674/96433
attr iterationvarsf mean=uniform(0.5s,_1.5s),dev=0.5#2a(uniform(0.5s,_1.5s)),time=2.5,num=5,47853,24674,96433-
attr measurement "$mean=uniform(0.5s, 1.5s), $dev=0.5*(uniform(0.5s, 1.5s)), $time=2.5, $num=5, $0=47853, $1=24674, $2=96433"
attr network MMc
attr processid 21264
attr repetition 2
attr replication #2
attr resultdir results
attr runnumber 46
attr seedset 46
itervar dev "0.5*(uniform(0.5s, 1.5s))"
itervar mean "uniform(0.5s, 1.5s)"
itervar num 5
itervar time 2.5
config description "MMc module"
config network MMc
config MMc.source.interArrivalTime "truncnormal(uniform(0.5s, 1.5s), 0.5*(uniform(0.5s, 1.5s)))"
config MMc.mmc.serviceTime 2.5s
config MMc.mmc.c 5
config MMc.mmc.capacity 10000
config record-eventlog false
config **.scalar-recording true
config **.vector-recording true
config repeat 4
config seed-1-mt 47853
config seed-2-mt 24674
config seed-3-mt 96433
config output-vector-file MMc-5-2.5-results/2.vec
config output-scalar-file MMc-5-2.5-results/2.sca

vector 0 MMc.mmc queueLength:vector ETV
attr interpolationmode none
attr recordingmode vector
attr title "queue length"
vector 1 MMc.mmc util:vector ETV
attr interpolationmode none
attr recordingmode vector
attr title resources
0	0	0	0
0	9	12.150348483267	1
0	10	12.5	0
0	16	12.622219752722	1
0	18	12.915932919115	2
0	19	12.915932919115	3
0	20	13.567741064153	2
0	21	13.567741064153	1
0	25	14.367676118557	2
0	26	14.367676118557	3
0	27	14.650348483267	2
0	29	15	1
0	31	15.122219752722	0
0	34	15.404026490317	1
0	35	15.404026490317	2
0	36	16.067741064153	1
0	37	16.067741064153	0
0	41	16.936419432509	1
0	42	16.936419432509	2
0	43	17.150348483267	1
0	45	17.5	0
0	58	19.133661686871	1
0	60	19.565735648832	2
0	61	19.565735648832	3
0	62	19.650348483267	2
0	64	20	1
0	67	20.131801809754	2
0	68	20.131801809754	3
0	70	20.884979602641	4
0	71	20.884979602641	5
0	72	21.345742061741	4
0	73	21.345742061741	3
0	76	21.633661686871	2
0	78	22.150348483267	1
0	80	22.5	0
0	83	23.034592436091	1
0	84	23.034592436091	2
0	85	23.845742061741	1
0	86	23.845742061741	0
0	93	24.40532878157	1
0	94	24.650348483267	0
0	97	24.769221939113	1
0	98	24.769221939113	2
0	99	25	1
0	102	25.282348306582	2
0	103	25.282348306582	3
0	105	25.308089733843	4
0	106	25.308089733843	5
0	107	26.345742061741	4
0	108	26.345742061741	3
0	112	26.471923283658	4
0	113	26.471923283658	5
0	114	26.90532878157	4
0	116	27.150348483267	3
0	118	27.5	2
0	121	28.495174953273	3
0	122	28.495174953273	4
0	123	28.845742061741	3
0	124	28.845742061741	2
0	128	28.975962719003	3
0	129	28.975962719003	4
0	131	29.317536967164	5
0	132	29.317536967164	6
0	133	29.40532878157	5
0	135	29.650348483267	4
0	137	30	3
0	140	30.172374452059	4
0	141	30.172374452059	5
0	143	30.444558239249	6
0	144	30.444558239249	7
0	145	31.345742061741	6
0	146	31.345742061741	5
0	150	31.576159916235	6
0	151	31.576159916235	7
0	152	31.90532878157	6
0	154	32.150348483267	5
0	157	32.195267676442	6
0	158	32.195267676442	7
0	159	32.5	6
0	162	32.760541796488	7
0	163	32.760541796488	8
0	164	33.845742061741	7
0	165	33.845742061741	6
0	169	33.871869739879	7
0	170	33.871869739879	8
0	171	34.40532878157	7
0	173	34.650348483267	6
0	175	35	5
0	178	35.182814864332	6
0	179	35.182814864332	7
0	180	36.345742061741	6
0	181	36.345742061741	5
0	185	36.803324116261	6
0	186	36.803324116261	7
0	187	36.90532878157	6
0	189	37.150348483267	5
0	191	37.5	4
0	194	37.994597943328	5
0	195	37.994597943328	6
0	196	38.845742061741	5
0	197	38.845742061741	4
0	201	39.021348171201	5
0	202	39.021348171201	6
0	204	39.33131470657	7
0	205	39.33131470657	8
0	206	39.40532878157	7
0	208	39.650348483267	6
0	210	40	5
0	213	40.282274096639	6
0	214	40.282274096639	7
0	215	41.345742061741	6
0	216	41.345742061741	5
0	220	41.365331065083	6
0	221	41.365331065083	7
0	222	41.90532878157	6
0	224	42.150348483267	5
0	227	42.315945733715	6
0	228	42.315945733715	7
0	229	42.5	6
0	231	43.845742061741	5
0	232	43.845742061741	4
0	236	43.96335673363	5
0	237	43.96335673363	6
0	238	44.40532878157	5
0	240	44.650348483267	4
0	242	45	3
0	245	45.669994034941	4
0	246	45.669994034941	5
0	247	46.345742061741	4
0	248	46.345742061741	3
0	251	46.90532878157	2
0	253	47.150348483267	1
0	256	47.325795885412	2
0	257	47.325795885412	3
0	258	47.5	2
0	261	48.689775383257	3
0	262	48.689775383257	4
0	263	48.845742061741	3
0	264	48.845742061741	2
0	268	49.400157477112	3
0	269	49.400157477112	4
0	270	49.40532878157	3
0	272	49.650348483267	2
0	274	50	1
0	277	50.690041700219	2
0	278	50.690041700219	3
0	279	51.345742061741	2
0	280	51.345742061741	1
0	283	51.90532878157	0
0	289	52.421124409436	1
0	290	52.5	0
0	293	53.056993265486	1
0	294	53.056993265486	2
0	295	53.845742061741	1
0	296	53.845742061741	0
0	310	55.848149094372	1
0	311	56.345742061741	0
0	317	56.900520091419	1
0	319	57.218279692237	2
0	320	57.218279692237	3
0	321	57.425560388058	2
0	322	57.425560388058	1
0	326	57.932683957333	2
0	327	57.932683957333	3
0	328	58.348149094372	2
0	330	58.845742061741	1
0	333	59.137549088966	2
0	334	59.137549088966	3
0	336	59.205343011465	4
0	337	59.205343011465	5
0	338	59.400520091419	4
0	340	59.925560388058	3
0	341	59.925560388058	2
0	345	60.509559211152	3
0	346	60.509559211152	4
0	347	60.848149094372	3
0	350	60.853763471996	4
0	351	60.853763471996	5
0	352	61.345742061741	4
0	354	61.900520091419	3
0	357	62.377753369672	4
0	358	62.377753369672	5
0	359	62.425560388058	4
0	360	62.425560388058	3
0	364	62.78989704694	4
0	365	62.78989704694	5
0	367	63.145832807027	6
0	368	63.145832807027	7
0	369	63.348149094372	6
0	371	63.845742061741	5
0	374	64.345963559628	6
0	375	64.345963559628	7
0	376	64.400520091419	6
0	378	64.925560388058	5
0	379	64.925560388058	4
0	383	64.937655701759	5
0	384	64.937655701759	6
0	386	65.584763746108	7
0	387	65.584763746108	8
0	388	65.848149094372	7
0	390	66.345742061741	6
0	393	66.652280122856	7
0	394	66.652280122856	8
0	396	66.830273582036	9
0	397	66.830273582036	10
0	398	66.900520091419	9
0	400	67.425560388058	8
0	401	67.425560388058	7
0	405	68.136350179904	8
0	406	68.136350179904	9
0	407	68.348149094372	8
0	409	68.845742061741	7
0	412	69.338087293968	8
0	413	69.338087293968	9
0	414	69.400520091419	8
0	416	69.925560388058	7
0	417	69.925560388058	6
0	421	70.588295703427	7
0	422	70.588295703427	8
0	423	70.848149094372	7
0	426	71.247356021982	8
0	427	71.247356021982	9
0	428	71.345742061741	8
0	430	71.900520091419	7
0	432	72.425560388058	6
0	433	72.425560388058	5
0	437	72.740655766075	6
0	438	72.740655766075	7
0	440	73.303239885972	8
0	441	73.303239885972	9
0	442	73.348149094372	8
0	444	73.845742061741	7
0	447	74.275525520339	8
0	448	74.275525520339	9
0	449	74.400520091419	8
0	451	74.925560388058	7
0	452	74.925560388058	6
0	456	75.654726395233	7
0	457	75.654726395233	8
0	458	75.848149094372	7
0	461	76.074882702695	8
0	462	76.074882702695	9
0	463	76.345742061741	8
0	466	76.651130113334	9
0	467	76.651130113334	10
0	468	76.900520091419	9
0	470	77.425560388058	8
0	471	77.425560388058	7
0	474	78.348149094372	6
0	477	78.457349781171	7
0	478	78.457349781171	8
0	480	78.76630513775	9
0	481	78.76630513775	10
0	482	78.845742061741	9
0	484	79.400520091419	8
0	487	79.647277305103	9
0	488	79.647277305103	10
0	489	79.925560388058	9
0	490	79.925560388058	8
0	494	80.087614499485	9
0	495	80.087614499485	10
0	496	80.848149094372	9
0	498	81.345742061741	8
0	500	81.900520091419	7
0	503	81.936611407733	8
0	504	81.936611407733	9
0	505	82.425560388058	8
0	506	82.425560388058	7
0	510	82.637048115326	8
0	511	82.637048115326	9
0	512	83.348149094372	8
0	514	83.845742061741	7
0	517	83.954519993724	8
0	518	83.954519993724	9
0	519	84.400520091419	8
0	521	84.925560388058	7
0	522	84.925560388058	6
0	525	85.848149094372	5
0	527	86.345742061741	4
0	530	86.410855945173	5
0	531	86.410855945173	6
0	532	86.900520091419	5
0	534	87.425560388058	4
0	535	87.425560388058	3
0	539	87.711948904459	4
0	540	87.711948904459	5
0	542	88.214791959621	6
0	543	88.214791959621	7
0	544	88.348149094372	6
0	546	88.845742061741	5
0	548	89.400520091419	4
0	551	89.676775199857	5
0	552	89.676775199857	6
0	553	89.925560388058	5
0	554	89.925560388058	4
0	557	90.848149094372	3
0	559	91.345742061741	2
0	562	91.86462527013	3
0	563	91.86462527013	4
0	564	91.900520091419	3
0	566	92.425560388058	2
0	567	92.425560388058	1
0	570	93.348149094372	0
0	573	93.645380557267	1
0	574	93.645380557267	2
0	575	93.845742061741	1
0	577	94.400520091419	0
0	580	94.546498824477	1
0	581	94.546498824477	2
0	582	94.925560388058	1
0	583	94.925560388058	0
0	587	95.238827295477	1
0	588	95.238827295477	2
0	589	95.848149094372	1
0	592	96.202491196662	2
0	593	96.202491196662	3
0	594	96.345742061741	2
0	596	96.900520091419	1
0	599	97.352754594229	2
0	600	97.352754594229	3
0	601	97.425560388058	2
0	602	97.425560388058	1
0	606	98.00864621066	2
0	607	98.00864621066	3
0	608	98.348149094372	2
0	611	98.562793042479	3
0	612	98.562793042479	4
0	614	98.718672535953	5
0	615	98.718672535953	6
0	616	98.845742061741	5
0	618	99.400520091419	4
0	621	99.577147789145	5
0	622	99.577147789145	6
0	623	99.925560388058	5
0	624	99.925560388058	4
0	628	100.7780440066	5
0	629	100.7780440066	6
0	630	100.848149094372	5
0	633	100.929970909218	6
0	634	100.929970909218	7
0	636	101.117545983703	8
0	637	101.117545983703	9
0	638	101.345742061741	8
0	640	101.900520091419	7
0	643	102.423192767249	8
0	644	102.423192767249	9
0	645	102.425560388058	8
0	646	102.425560388058	7
0	649	103.348149094372	6
0	652	103.624464330545	7
0	653	103.624464330545	8
0	654	103.845742061741	7
0	657	104.221910384842	8
0	658	104.221910384842	9
0	659	104.400520091419	8
0	661	104.925560388058	7
0	662	104.925560388058	6
0	665	105.848149094372	5
0	668	106.121111080924	6
0	669	106.121111080924	7
0	670	106.345742061741	6
0	672	106.900520091419	5
0	675	107.173376147399	6
0	676	107.173376147399	7
0	677	107.425560388058	6
0	678	107.425560388058	5
0	681	108.348149094372	4
0	683	108.845742061741	3
0	686	109.381020069895	4
0	687	109.381020069895	5
0	688	109.400520091419	4
0	690	109.925560388058	3
0	691	109.925560388058	2
0	695	110.56955893181	3
0	696	110.56955893181	4
0	697	110.848149094372	3
0	699	111.345742061741	2
0	701	111.900520091419	1
0	704	111.900756117365	2
0	705	111.900756117365	3
0	706	112.425560388058	2
0	707	112.425560388058	1
0	711	113.325084002534	2
0	712	113.325084002534	3
0	713	113.348149094372	2
0	715	113.845742061741	1
0	717	114.400520091419	0
0	730	116.292992561074	1
0	731	116.345742061741	0
0	734	116.736260863768	1
0	735	116.736260863768	2
0	736	116.900520091419	1
0	738	117.447464594042	0
0	744	118.013200040575	1
0	746	118.565230816051	2
0	747	118.565230816051	3
0	748	118.792992561074	2
0	750	118.845742061741	1
0	753	119.310629034663	2
0	754	119.310629034663	3
0	755	119.400520091419	2
0	757	119.947464594042	1
0	760	120.443194689457	2
0	761	120.443194689457	3
0	762	120.513200040575	2
0	764	121.292992561074	1
0	766	121.345742061741	0
0	769	121.381408514848	1
0	770	121.381408514848	2
0	772	121.433261549523	3
0	773	121.433261549523	4
0	774	121.900520091419	3
0	776	122.447464594042	2
0	778	123.013200040575	1
0	781	123.778533572924	2
0	782	123.778533572924	3
0	783	123.792992561074	2
0	785	123.845742061741	1
0	787	124.400520091419	0
0	793	125.415823231876	1
0	794	125.513200040575	0
0	797	125.86463496454	1
0	798	125.86463496454	2
0	799	126.292992561074	1
0	801	126.345742061741	0
0	807	127.676364743821	1
0	809	127.807681061401	2
0	810	127.807681061401	3
0	811	127.915823231876	2
0	813	128.013200040575	1
0	815	128.792992561074	0
0	821	128.995113737222	1
0	823	129.464159494517	2
0	824	129.464159494517	3
0	826	130.170376220341	4
0	827	130.170376220341	5
0	828	130.176364743821	4
0	830	130.415823231876	3
0	832	130.513200040575	2
0	834	131.292992561074	1
0	836	131.495113737222	0
0	839	131.899446883763	1
0	840	131.899446883763	2
0	842	132.415388323235	3
0	843	132.415388323235	4
0	844	132.676364743821	3
0	846	132.915823231876	2
0	848	133.013200040575	1
0	851	133.257855195436	2
0	852	133.257855195436	3
0	853	133.792992561074	2
0	855	133.995113737222	1
0	858	134.734284746322	2
0	859	134.734284746322	3
0	860	135.176364743821	2
0	862	135.415823231876	1
0	864	135.513200040575	0
0	867	135.751765256547	1
0	868	135.751765256547	2
0	869	136.292992561074	1
0	871	136.495113737222	0
0	874	136.776139946663	1
0	875	136.776139946663	2
0	876	137.676364743821	1
0	878	137.915823231876	0
0	881	137.934869650809	1
0	882	137.934869650809	2
0	883	138.013200040575	1
0	885	138.792992561074	0
0	888	138.936522728597	1
0	889	138.936522728597	2
0	890	138.995113737222	1
0	893	139.145762658598	2
0	894	139.145762658598	3
0	896	139.818553632422	4
0	897	139.818553632422	5
0	898	140.176364743821	4
0	900	140.415823231876	3
0	902	140.513200040575	2
0	905	140.912650237389	3
0	906	140.912650237389	4
0	907	141.292992561074	3
0	909	141.495113737222	2
0	912	142.35898480285	3
0	913	142.35898480285	4
0	914	142.676364743821	3
0	917	142.704603199498	4
0	918	142.704603199498	5
0	919	142.915823231876	4
0	921	143.013200040575	3
0	923	143.792992561074	2
0	926	143.911714963682	3
0	927	143.911714963682	4
0	928	143.995113737222	3
0	930	145.176364743821	2
0	933	145.388100459407	3
0	934	145.388100459407	4
0	935	145.415823231876	3
0	937	145.513200040575	2
0	940	145.622154301832	3
0	941	145.622154301832	4
0	942	146.292992561074	3
0	944	146.495113737222	2
0	947	146.793027095716	3
0	948	146.793027095716	4
0	950	147.276236825514	5
0	951	147.276236825514	6
0	952	147.676364743821	5
0	954	147.915823231876	4
0	956	148.013200040575	3
0	959	148.478398424635	4
0	960	148.478398424635	5
0	961	148.792992561074	4
0	963	148.995113737222	3
0	966	149.19962976026	4
0	967	149.19962976026	5
0	968	150.176364743821	4
0	970	150.415823231876	3
0	972	150.513200040575	2
0	975	150.975926824094	3
0	976	150.975926824094	4
0	977	151.292992561074	3
0	979	151.495113737222	2
0	982	151.625956239738	3
0	983	151.625956239738	4
0	984	152.676364743821	3
0	986	152.915823231876	2
0	988	153.013200040575	1
0	991	153.502790017335	2
0	992	153.502790017335	3
0	993	153.792992561074	2
0	995	153.995113737222	1
0	997	155.176364743821	0
0	1010	156.350443197802	1
0	1011	156.495113737222	0
0	1014	157.182439013857	1
0	1015	157.182439013857	2
0	1016	157.676364743821	1
0	1018	158.076274368703	0
0	1024	158.266612294757	1
0	1025	158.850443197802	0
0	1028	158.968757626171	1
0	1029	158.968757626171	2
0	1030	158.995113737222	1
0	1033	159.934775945099	2
0	1034	159.934775945099	3
0	1036	160.096899043536	4
0	1037	160.096899043536	5
0	1038	160.176364743821	4
0	1040	160.576274368703	3
0	1043	160.684394375156	4
0	1044	160.684394375156	5
0	1045	160.766612294757	4
0	1048	161.144491664958	5
0	1049	161.144491664958	6
0	1050	161.350443197802	5
0	1052	161.495113737222	4
0	1055	162.524100693394	5
0	1056	162.524100693394	6
0	1057	162.676364743821	5
0	1059	163.076274368703	4
0	1061	163.266612294757	3
0	1064	163.698202224319	4
0	1065	163.698202224319	5
0	1066	163.850443197802	4
0	1068	163.995113737222	3
0	1071	164.207435183832	4
0	1072	164.207435183832	5
0	1074	165.004460638526	6
0	1075	165.004460638526	7
0	1076	165.176364743821	6
0	1078	165.576274368703	5
0	1080	165.766612294757	4
0	1082	166.350443197802	3
0	1085	166.368777802074	4
0	1086	166.368777802074	5
0	1087	166.495113737222	4
0	1090	167.546751746278	5
0	1091	167.546751746278	6
0	1092	167.676364743821	5
0	1095	168.043915844273	6
0	1096	168.043915844273	7
0	1097	168.076274368703	6
0	1099	168.266612294757	5
0	1101	168.850443197802	4
0	1103	168.995113737222	3
0	1106	169.723039297079	4
0	1107	169.723039297079	5
0	1108	170.176364743821	4
0	1110	170.576274368703	3
0	1112	170.766612294757	2
0	1115	171.105692819585	3
0	1116	171.105692819585	4
0	1117	171.350443197802	3
0	1119	171.495113737222	2
0	1122	171.65690247173	3
0	1123	171.65690247173	4
0	1125	171.998143382951	5
0	1126	171.998143382951	6
0	1127	172.676364743821	5
0	1129	173.076274368703	4
0	1132	173.179020365499	5
0	1133	173.179020365499	6
0	1134	173.266612294757	5
0	1136	173.850443197802	4
0	1139	173.973213594237	5
0	1140	173.973213594237	6
0	1141	173.995113737222	5
0	1144	174.545152093176	6
0	1145	174.545152093176	7
0	1146	175.176364743821	6
0	1148	175.576274368703	5
0	1150	175.766612294757	4
0	1153	176.123225692191	5
0	1154	176.123225692191	6
0	1155	176.350443197802	5
0	1157	176.495113737222	4
0	1160	177.203328562937	5
0	1161	177.203328562937	6
0	1162	177.676364743821	5
0	1164	178.076274368703	4
0	1166	178.266612294757	3
0	1169	178.271624455089	4
0	1170	178.271624455089	5
0	1171	178.850443197802	4
0	1173	178.995113737222	3
0	1176	179.004247810242	4
0	1177	179.004247810242	5
0	1178	180.176364743821	4
0	1181	180.424689938021	5
0	1182	180.424689938021	6
0	1183	180.576274368703	5
0	1185	180.766612294757	4
0	1187	181.350443197802	3
0	1189	181.495113737222	2
0	1192	182.024956897125	3
0	1193	182.024956897125	4
0	1194	182.676364743821	3
0	1196	183.076274368703	2
0	1198	183.266612294757	1
0	1200	183.850443197802	0
0	1206	184.029780135491	1
0	1208	184.29096295599	2
0	1209	184.29096295599	3
0	1210	185.176364743821	2
0	1212	185.576274368703	1
0	1214	185.766612294757	0
0	1217	185.938157209878	1
0	1218	185.938157209878	2
0	1219	186.350443197802	1
0	1221	186.529780135491	0
0	1224	187.127504403426	1
0	1225	187.127504403426	2
0	1226	187.676364743821	1
0	1228	188.076274368703	0
0	1231	188.142492974632	1
0	1232	188.142492974632	2
0	1233	188.266612294757	1
0	1236	188.773109768403	2
0	1237	188.773109768403	3
0	1238	188.850443197802	2
0	1240	189.029780135491	1
0	1242	190.176364743821	0
0	1248	190.580057653617	1
0	1249	190.766612294757	0
0	1252	191.054553973042	1
0	1253	191.054553973042	2
0	1254	191.350443197802	1
0	1256	191.529780135491	0
0	1259	191.651805148162	1
0	1260	191.651805148162	2
0	1261	192.676364743821	1
0	1264	192.736952073446	2
0	1265	192.736952073446	3
0	1266	193.080057653617	2
0	1268	193.266612294757	1
0	1271	193.621508504818	2
0	1272	193.621508504818	3
0	1273	193.850443197802	2
0	1275	194.029780135491	1
0	1278	194.998079144143	2
0	1279	194.998079144143	3
0	1280	195.176364743821	2
0	1282	195.580057653617	1
0	1284	195.766612294757	0
0	1297	198.080045094578	1
0	1298	198.080057653617	0
0	1301	198.182657881807	1
0	1302	198.182657881807	2
0	1303	198.266612294757	1
0	1306	199.146175389239	2
0	1307	199.146175389239	3
0	1308	199.490813050992	2
0	1309	199.490813050992	1
0	1313	200.430495669349	2
0	1314	200.430495669349	3
0	1315	200.580045094578	2
0	1317	200.580057653617	1
0	1319	200.766612294757	0
0	1322	200.837868201575	1
0	1323	200.837868201575	2
0	1325	201.931063143296	3
0	1326	201.931063143296	4
0	1327	201.990813050992	3
0	1328	201.990813050992	2
0	1331	203.080045094578	1
0	1333	203.080057653617	0
0	1339	203.665580360778	1
0	1341	204.305331595927	2
0	1342	204.305331595927	3
0	1343	204.490813050992	2
0	1344	204.490813050992	1
0	1347	205.580045094578	0
0	1353	205.614711485662	1
0	1354	206.165580360778	0
0	1364	207.646074887277	1
0	1365	207.646074887277	2
0	1366	208.080045094578	1
0	1368	208.114711485662	0
0	1374	209.321680649858	1
0	1375	209.621287584521	0
0	1381	209.981510181715	1
0	1382	210.580045094578	0
0	1388	211.091866077236	1
0	1389	211.821680649858	0
0	1392	211.845910513885	1
0	1393	211.845910513885	2
0	1394	212.121287584521	1
0	1396	212.481510181715	0
0	1402	213.271394707741	1
0	1403	213.591866077236	0
0	1430	219.226920956493	1
0	1431	219.512535210618	0
0	1451	222.647234112155	1
0	1453	222.87795055681	2
0	1454	222.87795055681	3
0	1455	223.942968029616	2
0	1456	223.942968029616	1
0	1459	224.338424324478	0
0	1465	224.540388504053	1
0	1466	225.147234112155	0
0	1469	225.507942969309	1
0	1470	225.507942969309	2
0	1472	225.822396152762	3
0	1473	225.822396152762	4
0	1474	226.442968029616	3
0	1475	226.442968029616	2
0	1478	226.838424324478	1
0	1480	227.040388504053	0
0	1483	227.170693820706	1
0	1484	227.170693820706	2
0	1486	227.391337913386	3
0	1487	227.391337913386	4
0	1488	227.647234112155	3
0	1491	228.100163174577	4
0	1492	228.100163174577	5
0	1494	228.85871107726	6
0	1495	228.85871107726	7
0	1496	228.942968029616	6
0	1497	228.942968029616	5
0	1501	229.283792872405	6
0	1502	229.283792872405	7
0	1503	229.338424324478	6
0	1505	229.540388504053	5
0	1507	230.147234112155	4
0	1510	231.381029597985	5
0	1511	231.381029597985	6
0	1512	231.442968029616	5
0	1513	231.442968029616	4
0	1516	231.838424324478	3
0	1518	232.040388504053	2
0	1521	232.053258501003	3
0	1522	232.053258501003	4
0	1524	232.12958927243	5
0	1525	232.12958927243	6
0	1526	232.647234112155	5
0	1529	232.787410774545	6
0	1530	232.787410774545	7
0	1531	233.942968029616	6
0	1532	233.942968029616	5
0	1535	234.338424324478	4
0	1538	234.527349301972	5
0	1539	234.527349301972	6
0	1540	234.540388504053	5
0	1542	235.147234112155	4
0	1545	235.341060458215	5
0	1546	235.341060458215	6
0	1548	236.110160409399	7
0	1549	236.110160409399	8
0	1550	236.442968029616	7
0	1551	236.442968029616	6
0	1555	236.481097091414	7
0	1556	236.481097091414	8
0	1557	236.838424324478	7
0	1559	237.040388504053	6
0	1561	237.647234112155	5
0	1564	237.685393115074	6
0	1565	237.685393115074	7
0	1566	238.942968029616	6
0	1567	238.942968029616	5
0	1571	238.950098420266	6
0	1572	238.950098420266	7
0	1573	239.338424324478	6
0	1575	239.540388504053	5
0	1578	239.745666147148	6
0	1579	239.745666147148	7
0	1580	240.147234112155	6
0	1583	240.431118035654	7
0	1584	240.431118035654	8
0	1585	241.442968029616	7
0	1586	241.442968029616	6
0	1590	241.686478105163	7
0	1591	241.686478105163	8
0	1592	241.838424324478	7
0	1594	242.040388504053	6
0	1597	242.199932833663	7
0	1598	242.199932833663	8
0	1600	242.625554614755	9
0	1601	242.625554614755	10
0	1602	242.647234112155	9
0	1605	243.150712626231	10
0	1606	243.150712626231	11
0	1608	243.605301211503	12
0	1609	243.605301211503	13
0	1610	243.942968029616	12
0	1611	243.942968029616	11
0	1614	244.338424324478	10
0	1616	244.540388504053	9
0	1619	244.941042376728	10
0	1620	244.941042376728	11
0	1621	245.147234112155	10
0	1624	245.396242049181	11
0	1625	245.396242049181	12
0	1627	245.533530036706	13
0	1628	245.533530036706	14
0	1629	246.442968029616	13
0	1630	246.442968029616	12
0	1633	246.838424324478	11
0	1635	247.040388504053	10
0	1638	247.087148301601	11
0	1639	247.087148301601	12
0	1640	247.647234112155	11
0	1643	247.677387638629	12
0	1644	247.677387638629	13
0	1646	248.071822626294	14
0	1647	248.071822626294	15
0	1648	248.942968029616	14
0	1649	248.942968029616	13
0	1653	249.194944945566	14
0	1654	249.194944945566	15
0	1655	249.338424324478	14
0	1657	249.540388504053	13
0	1659	250.147234112155	12
0	1662	250.414668167894	13
0	1663	250.414668167894	14
0	1664	251.442968029616	13
0	1665	251.442968029616	12
0	1669	251.460303142914	13
0	1670	251.460303142914	14
0	1672	251.566900230376	15
0	1673	251.566900230376	16
0	1674	251.838424324478	15
0	1676	252.040388504053	14
0	1679	252.431974053591	15
0	1680	252.431974053591	16
0	1681	252.647234112155	15
0	1684	253.305029043772	16
0	1685	253.305029043772	17
0	1686	253.942968029616	16
0	1687	253.942968029616	15
0	1691	253.986298503902	16
0	1692	253.986298503902	17
0	1693	254.338424324478	16
0	1695	254.540388504053	15
0	1698	255.141244894894	16
0	1699	255.141244894894	17
0	1700	255.147234112155	16
0	1703	256.038700573718	17
0	1704	256.038700573718	18
0	1705	256.442968029616	17
0	1706	256.442968029616	16
0	1709	256.838424324478	15
0	1711	257.040388504053	14
0	1714	257.19283355994	15
0	1715	257.19283355994	16
0	1716	257.647234112155	15
0	1719	258.892698314497	16
0	1720	258.892698314497	17
0	1721	258.942968029616	16
0	1722	258.942968029616	15
0	1725	259.338424324478	14
0	1728	259.534999751562	15
0	1729	259.534999751562	16
0	1730	259.540388504053	15
0	1732	260.147234112155	14
0	1735	260.812714957158	15
0	1736	260.812714957158	16
0	1737	261.442968029616	15
0	1738	261.442968029616	14
0	1742	261.774791927308	15
0	1743	261.774791927308	16
0	1744	261.838424324478	15
0	1746	262.040388504053	14
0	1748	262.647234112155	13
0	1751	262.86448130779	14
0	1752	262.86448130779	15
0	1754	263.765207983095	16
0	1755	263.765207983095	17
0	1756	263.942968029616	16
0	1757	263.942968029616	15
0	1760	264.338424324478	14
0	1762	264.540388504053	13
0	1764	265.147234112155	12
0	1767	265.478269277914	13
0	1768	265.478269277914	14
0	1769	266.442968029616	13
0	1770	266.442968029616	12
0	1774	266.686024233859	13
0	1775	266.686024233859	14
0	1777	266.702333527025	15
0	1778	266.702333527025	16
0	1780	266.716958659381	17
0	1781	266.716958659381	18
0	1782	266.838424324478	17
0	1784	267.040388504053	16
0	1787	267.366181998025	17
0	1788	267.366181998025	18
0	1789	267.647234112155	17
0	1792	267.868652585289	18
0	1793	267.868652585289	19
0	1794	268.942968029616	18
0	1795	268.942968029616	17
0	1799	268.975858962038	18
0	1800	268.975858962038	19
0	1801	269.338424324478	18
0	1804	269.384772425501	19
0	1805	269.384772425501	20
0	1806	269.540388504053	19
0	1808	270.147234112155	18
0	1811	270.79224657163	19
0	1812	270.79224657163	20
0	1813	271.442968029616	19
0	1814	271.442968029616	18
0	1817	271.838424324478	17
0	1819	272.040388504053	16
0	1821	272.647234112155	15
0	1824	273.016490673494	16
0	1825	273.016490673494	17
0	1826	273.942968029616	16
0	1827	273.942968029616	15
0	1830	274.338424324478	14
0	1833	274.46582779429	15
0	1834	274.46582779429	16
0	1835	274.540388504053	15
0	1837	275.147234112155	14
0	1840	276.333859936268	15
0	1841	276.333859936268	16
0	1842	276.442968029616	15
0	1843	276.442968029616	14
0	1846	276.838424324478	13
0	1849	277.003532850338	14
0	1850	277.003532850338	15
0	1851	277.040388504053	14
0	1854	277.485639361606	15
0	1855	277.485639361606	16
0	1856	277.647234112155	15
0	1858	278.942968029616	14
0	1859	278.942968029616	13
0	1863	278.981284153161	14
0	1864	278.981284153161	15
0	1865	279.338424324478	14
0	1867	279.540388504053	13
0	1870	279.95885532962	14
0	1871	279.95885532962	15
0	1872	280.147234112155	14
0	1874	281.442968029616	13
0	1875	281.442968029616	12
0	1879	281.448327637607	13
0	1880	281.448327637607	14
0	1881	281.838424324478	13
0	1883	282.040388504053	12
0	1886	282.268525706444	13
0	1887	282.268525706444	14
0	1888	282.647234112155	13
0	1890	283.942968029616	12
0	1891	283.942968029616	11
0	1895	284.212911654844	12
0	1896	284.212911654844	13
0	1897	284.338424324478	12
0	1899	284.540388504053	11
0	1901	285.147234112155	10
0	1904	286.217624702461	11
0	1905	286.217624702461	12
0	1906	286.442968029616	11
0	1907	286.442968029616	10
0	1910	286.838424324478	9
0	1913	287.037899859819	10
0	1914	287.037899859819	11
0	1915	287.040388504053	10
0	1917	287.647234112155	9
0	1920	288.809199440811	10
0	1921	288.809199440811	11
0	1922	288.942968029616	10
0	1923	288.942968029616	9
0	1926	289.338424324478	8
0	1928	289.540388504053	7
0	1931	290.054321441203	8
0	1932	290.054321441203	9
0	1933	290.147234112155	8
0	1936	291.041244861907	9
0	1937	291.041244861907	10
0	1939	291.179919564029	11
0	1940	291.179919564029	12
0	1941	291.442968029616	11
0	1942	291.442968029616	10
0	1945	291.838424324478	9
0	1947	292.040388504053	8
0	1949	292.647234112155	7
0	1952	292.658220434739	8
0	1953	292.658220434739	9
0	1955	293.565195426165	10
0	1956	293.565195426165	11
0	1957	293.942968029616	10
0	1958	293.942968029616	9
0	1961	294.338424324478	8
0	1964	294.475856167956	9
0	1965	294.475856167956	10
0	1966	294.540388504053	9
0	1968	295.147234112155	8
0	1971	296.220337594355	9
0	1972	296.220337594355	10
0	1973	296.442968029616	9
0	1974	296.442968029616	8
0	1977	296.838424324478	7
0	1979	297.040388504053	6
0	1982	297.246693836993	7
0	1983	297.246693836993	8
0	1984	297.647234112155	7
0	1987	298.015734746882	8
0	1988	298.015734746882	9
0	1989	298.942968029616	8
0	1990	298.942968029616	7
0	1993	299.338424324478	6
0	1996	299.428851026803	7
0	1997	299.428851026803	8
0	1998	299.540388504053	7
0	2000	300.147234112155	6
0	2003	301.16631106559	7
0	2004	301.16631106559	8
0	2005	301.442968029616	7
0	2006	301.442968029616	6
0	2009	301.838424324478	5
0	2011	302.040388504053	4
0	2014	302.085125600337	5
0	2015	302.085125600337	6
0	2016	302.647234112155	5
0	2019	303.629147474586	6
0	2020	303.629147474586	7
0	2022	303.937424824614	8
0	2023	303.937424824614	9
0	2024	303.942968029616	8
0	2025	303.942968029616	7
0	2028	304.338424324478	6
0	2030	304.540388504053	5
0	2032	305.147234112155	4
0	2035	305.284120471605	5
0	2036	305.284120471605	6
0	2037	306.442968029616	5
0	2038	306.442968029616	4
0	2042	306.694121277996	5
0	2043	306.694121277996	6
0	2044	306.838424324478	5
0	2046	307.040388504053	4
0	2048	307.647234112155	3
0	2051	308.454336846042	4
0	2052	308.454336846042	5
0	2053	308.942968029616	4
0	2054	308.942968029616	3
0	2057	309.338424324478	2
0	2059	309.540388504053	1
0	2062	309.911478659102	2
0	2063	309.911478659102	3
0	2064	310.147234112155	2
0	2066	311.442968029616	1
0	2067	311.442968029616	0
0	2071	311.492437589118	1
0	2072	311.492437589118	2
0	2073	311.838424324478	1
0	2076	311.96229616726	2
0	2077	311.96229616726	3
0	2078	312.040388504053	2
0	2080	312.647234112155	1
0	2083	313.324223568523	2
0	2084	313.324223568523	3
0	2085	313.942968029616	2
0	2086	313.942968029616	1
0	2089	314.338424324478	0
0	2092	314.478167152829	1
0	2093	314.478167152829	2
0	2094	314.540388504053	1
0	2096	315.147234112155	0
0	2099	315.150474360673	1
0	2100	315.150474360673	2
0	2101	316.442968029616	1
0	2102	316.442968029616	0
0	2106	316.796058236436	1
0	2107	316.796058236436	2
0	2108	316.838424324478	1
0	2110	317.040388504053	0
0	2130	320.981770852164	1
0	2131	321.691840708379	0
0	2137	322.855357816574	1
0	2138	323.037604945259	0
0	2144	323.384922913113	1
0	2145	323.481770852164	0
0	2148	323.493225279041	1
0	2149	323.493225279041	2
0	2150	324.191840708379	1
0	2153	324.973240682199	2
0	2154	324.973240682199	3
0	2155	325.355357816574	2
0	2158	325.519252594333	3
0	2159	325.519252594333	4
0	2160	325.537604945259	3
0	2162	325.884922913113	2
0	2164	325.981770852164	1
0	2167	326.44712064392	2
0	2168	326.44712064392	3
0	2169	326.691840708379	2