version 3
run MMc-47-20221127-11:38:42-21264
attr configname MMc
attr datetime 20221127-11:38:42
attr datetimef 20221127-113842
attr experiment MMc
attr inifile omnetpp.ini
attr iterationvars "$mean=uniform(0.5s, 1.5s), $dev=0.5*(uniform(0.5s, 1.5s)), $time=2.5, $num=5, $0=33434, $1=56673, $2=23567"
attr iterationvarsd mean=uniform(0.5s,_1.5s)/dev=0.5#2a(uniform(0.5s,_1.5s))/time=2.5/num=5/33434/56673/23567
attr iterationvarsf mean=uniform(0.5s,_1.5s),dev=0.5#2a(uniform(0.5s,_1.5s)),time=2.5,num=5,33434,56673,23567-
attr measurement "$mean=uniform(0.5s, 1.5s), $dev=0.5*(uniform(0.5s, 1.5s)), $time=2.5, $num=5, $0=33434, $1=56673, $2=23567"
attr network MMc
attr processid 21264
attr repetition 3
attr replication #3
attr resultdir results
attr runnumber 47
attr seedset 47
itervar dev "0.5*(uniform(0.5s, 1.5s))"
itervar mean "uniform(0.5s, 1.5s)"
itervar num 5
itervar time 2.5
config description "MMc module"
config network MMc
config MMc.source.interArrivalTime "truncnormal(uniform(0.5s, 1.5s), 0.5*(uniform(0.5s, 1.5s)))"
config MMc.mmc.serviceTime 2.5s
config MMc.mmc.c 5
config MMc.mmc.capacity 10000
config record-eventlog false
config **.scalar-recording true
config **.vector-recording true
config repeat 4
config seed-1-mt 33434
config seed-2-mt 56673
config seed-3-mt 23567
config output-vector-file MMc-5-2.5-results/3.vec
config output-scalar-file MMc-5-2.5-results/3.sca

vector 0 MMc.mmc queueLength:vector ETV
attr interpolationmode none
attr recordingmode vector
attr title "queue length"
vector 1 MMc.mmc util:vector ETV
attr interpolationmode none
attr recordingmode vector
attr title resources
0	0	0	0
0	30	17.384244871218	1
0	31	17.876289142525	0
0	37	18.049972493722	1
0	39	18.677284592974	2
0	40	18.677284592974	3
0	41	18.860813082695	2
0	42	18.860813082695	1
0	46	19.792857049087	2
0	47	19.792857049087	3
0	48	19.884244871218	2
0	51	20.142548283764	3
0	52	20.142548283764	4
0	53	20.376289142525	3
0	56	20.43585749531	4
0	57	20.43585749531	5
0	58	20.549972493722	4
0	60	21.360813082695	3
0	61	21.360813082695	2
0	65	22.191914586606	3
0	66	22.191914586606	4
0	67	22.384244871218	3
0	69	22.876289142525	2
0	71	23.049972493722	1
0	74	23.395004533373	2
0	75	23.395004533373	3
0	76	23.860813082695	2
0	77	23.860813082695	1
0	80	24.884244871218	0
0	86	25.421748072266	1
0	87	25.549972493722	0
0	114	31.073324287493	1
0	115	31.129055600515	0
0	121	31.857606565502	1
0	123	32.376765009751	2
0	124	32.376765009751	3
0	125	32.742271987734	2
0	126	32.742271987734	1
0	130	33.229099437321	2
0	131	33.229099437321	3
0	132	33.573324287493	2
0	134	33.629055600515	1
0	137	33.993826350059	2
0	138	33.993826350059	3
0	139	34.357606565502	2
0	142	34.970223660385	3
0	143	34.970223660385	4
0	144	35.242271987734	3
0	145	35.242271987734	2
0	148	36.073324287493	1
0	150	36.129055600515	0
0	153	36.16149411737	1
0	154	36.16149411737	2
0	155	36.857606565502	1
0	158	37.480253997343	2
0	159	37.480253997343	3
0	160	37.742271987734	2
0	161	37.742271987734	1
0	164	38.573324287493	0
0	170	38.64689843773	1
0	171	39.357606565502	0
0	174	39.892696137127	1
0	175	39.892696137127	2
0	176	40.242271987734	1
0	177	40.242271987734	0
0	181	40.888366462083	1
0	182	40.888366462083	2
0	183	41.073324287493	1
0	185	41.14689843773	0
0	191	41.915484304333	1
0	193	42.202605287541	2
0	194	42.202605287541	3
0	195	42.742271987734	2
0	196	42.742271987734	1
0	200	43.529536664416	2
0	201	43.529536664416	3
0	202	43.573324287493	2
0	204	43.64689843773	1
0	206	44.415484304333	0
0	240	50.918231416515	1
0	241	50.982625884582	0
0	247	51.769795856825	1
0	249	52.892177140807	2
0	250	52.892177140807	3
0	251	52.95292549752	2
0	252	52.95292549752	1
0	255	53.418231416515	0
0	261	53.828932397713	1
0	262	54.269795856825	0
0	265	54.466228186823	1
0	266	54.466228186823	2
0	268	54.985992597329	3
0	269	54.985992597329	4
0	270	55.45292549752	3
0	271	55.45292549752	2
0	274	55.918231416515	1
0	276	56.328932397713	0
0	279	56.571883117684	1
0	280	56.571883117684	2
0	281	56.769795856825	1
0	283	57.95292549752	0
0	303	61.162549681338	1
0	304	61.360212972007	0
0	310	61.848868583183	1
0	311	62.117756805522	0
0	317	62.778778050896	1
0	319	63.190699683759	2
0	320	63.190699683759	3
0	321	63.662549681338	2
0	323	63.860212972007	1
0	325	64.348868583183	0
0	331	65.154755206136	1
0	332	65.278778050896	0
0	359	70.466239091028	1
0	360	71.320744030823	0
0	366	71.61754239227	1
0	368	72.155972343682	2
0	369	72.155972343682	3
0	370	72.374222944098	2
0	371	72.374222944098	1
0	374	72.966239091028	0
0	377	73.566511227919	1
0	378	73.566511227919	2
0	379	73.820744030823	1
0	381	74.11754239227	0
0	384	74.398826886046	1
0	385	74.398826886046	2
0	386	74.874222944098	1
0	387	74.874222944098	0
0	394	75.52543387804	1
0	395	76.320744030823	0
0	401	76.968185018714	1
0	402	77.374222944098	0
0	412	78.810876806207	1
0	413	78.810876806207	2
0	414	78.820744030823	1
0	417	78.994480853789	2
0	418	78.994480853789	3
0	419	79.468185018714	2
0	422	79.702927749003	3
0	423	79.702927749003	4
0	425	79.851809503634	5
0	426	79.851809503634	6
0	427	79.874222944098	5
0	429	80.823784207675	4
0	430	80.823784207675	3
0	434	81.21605177319	4
0	435	81.21605177319	5
0	436	81.320744030823	4
0	438	81.968185018714	3
0	440	82.374222944098	2
0	443	82.389148560319	3
0	444	82.389148560319	4
0	445	83.323784207675	3
0	446	83.323784207675	2
0	449	83.820744030823	1
0	452	84.414283559726	2
0	453	84.414283559726	3
0	454	84.468185018714	2
0	456	84.874222944098	1
0	458	85.823784207675	0
0	464	86.119540975687	1
0	465	86.320744030823	0
0	485	90.430021992051	1
0	486	90.919545136683	0
0	506	94.901868517788	1
0	507	94.905632365975	0
0	513	96.107967495449	1
0	514	96.397349090539	0
0	520	96.565483740626	1
0	521	97.401868517788	0
0	527	97.699610299576	1
0	529	98.489101415304	2
0	530	98.489101415304	3
0	531	98.607967495449	2
0	533	98.897349090539	1
0	536	99.037258870854	2
0	537	99.037258870854	3
0	538	99.065483740626	2
0	541	99.491662406595	3
0	542	99.491662406595	4
0	543	99.901868517788	3
0	545	100.199610299576	2
0	548	100.516807351385	3
0	549	100.516807351385	4
0	550	101.107967495449	3
0	552	101.397349090539	2
0	554	101.565483740626	1
0	557	101.63339388079	2
0	558	101.63339388079	3
0	560	101.802310577499	4
0	561	101.802310577499	5
0	562	102.401868517788	4
0	564	102.699610299576	3
0	567	102.953979572697	4
0	568	102.953979572697	5
0	569	103.607967495449	4
0	571	103.897349090539	3
0	573	104.065483740626	2
0	576	104.582095098989	3
0	577	104.582095098989	4
0	579	104.655792286831	5
0	580	104.655792286831	6
0	582	104.657374822166	7
0	583	104.657374822166	8
0	584	104.901868517788	7
0	586	105.199610299576	6
0	588	106.107967495449	5
0	590	106.397349090539	4
0	593	106.506874109634	5
0	594	106.506874109634	6
0	595	106.565483740626	5
0	597	107.401868517788	4
0	599	107.699610299576	3
0	601	108.607967495449	2
0	604	108.833289638835	3
0	605	108.833289638835	4
0	606	108.897349090539	3
0	608	109.065483740626	2
0	611	109.893958154376	3
0	612	109.893958154376	4
0	613	109.901868517788	3
0	615	110.199610299576	2
0	617	111.107967495449	1
0	619	111.397349090539	0
0	625	112.009548683789	1
0	626	112.401868517788	0
0	629	112.64216209977	1
0	630	112.64216209977	2
0	631	112.699610299576	1
0	633	113.607967495449	0
0	639	114.417003490516	1
0	640	114.509548683789	0
0	660	117.968031238653	1
0	661	118.307609990315	0
0	667	119.281828768991	1
0	668	119.637431844623	0
0	688	123.254725002468	1
0	689	123.79606201229	0
0	695	123.857626621875	1
0	697	124.398897121346	2
0	698	124.398897121346	3
0	699	124.933995165055	2
0	700	124.933995165055	1
0	704	124.952279910174	2
0	705	124.952279910174	3
0	706	125.754725002468	2
0	708	126.29606201229	1
0	710	126.357626621875	0
0	713	126.598832946264	1
0	714	126.598832946264	2
0	715	127.433995165055	1
0	716	127.433995165055	0
0	723	128.68846619434	1
0	724	128.79606201229	0
0	730	129.375443015972	1
0	731	129.933995165055	0
0	737	130.360277843227	1
0	739	130.908449529692	2
0	740	130.908449529692	3
0	741	131.18846619434	2
0	743	131.29606201229	1
0	746	131.460167238483	2
0	747	131.460167238483	3
0	748	131.875443015972	2
0	750	132.433995165055	1
0	753	132.60957283936	2
0	754	132.60957283936	3
0	755	132.860277843227	2
0	757	133.68846619434	1
0	759	133.79606201229	0
0	762	133.877589665451	1
0	763	133.877589665451	2
0	764	134.375443015972	1
0	766	134.933995165055	0
0	772	135.377016817536	1
0	773	136.18846619434	0
0	779	136.867410650455	1
0	780	136.875443015972	0
0	786	137.743456364655	1
0	787	137.877016817536	0
0	793	139.28446351564	1
0	794	139.367410650455	0
0	807	141.492744545137	1
0	808	141.78446351564	0
0	814	143.282547049347	1
0	815	143.313866201208	0
0	835	146.537571982722	1
0	837	147.318090558201	2
0	838	147.318090558201	3
0	839	147.330722269726	2
0	840	147.330722269726	1
0	843	148.299246740327	0
0	849	148.302017720288	1
0	850	149.037571982722	0
0	853	149.27686731396	1
0	854	149.27686731396	2
0	855	149.830722269726	1
0	856	149.830722269726	0
0	870	152.194491243608	1
0	872	152.284127017123	2
0	873	152.284127017123	3
0	874	152.330722269726	2
0	875	152.330722269726	1
0	878	153.482141035739	0
0	898	157.264204181861	1
0	900	157.286514493806	2
0	901	157.286514493806	3
0	902	157.483562731668	2
0	903	157.483562731668	1
0	907	157.778981940789	2
0	908	157.778981940789	3
0	910	158.022871249311	4
0	911	158.022871249311	5
0	912	158.723778328872	4
0	913	158.723778328872	3
0	917	158.802341703931	4
0	918	158.802341703931	5
0	920	159.181777209667	6
0	921	159.181777209667	7
0	923	159.691070240088	8
0	924	159.691070240088	9
0	925	159.764204181861	8
0	927	159.983562731668	7
0	928	159.983562731668	6
0	932	160.435626603953	7
0	933	160.435626603953	8
0	934	161.223778328872	7
0	935	161.223778328872	6
0	939	162.07225748335	7
0	940	162.07225748335	8
0	941	162.264204181861	7
0	943	162.483562731668	6
0	944	162.483562731668	5
0	948	163.189708237632	6
0	949	163.189708237632	7
0	950	163.723778328872	6
0	951	163.723778328872	5
0	955	164.47804600161	6
0	956	164.47804600161	7
0	957	164.764204181861	6
0	959	164.983562731668	5
0	960	164.983562731668	4
0	964	165.529150519507	5
0	965	165.529150519507	6
0	967	165.795175396132	7
0	968	165.795175396132	8
0	969	166.223778328872	7
0	970	166.223778328872	6
0	974	167.042607476554	7
0	975	167.042607476554	8
0	976	167.264204181861	7
0	978	167.483562731668	6
0	979	167.483562731668	5
0	983	167.504977631182	6
0	984	167.504977631182	7
0	986	167.748220816182	8
0	987	167.748220816182	9
0	989	168.022651093463	10
0	990	168.022651093463	11
0	991	168.723778328872	10
0	992	168.723778328872	9
0	996	169.382032589891	10
0	997	169.382032589891	11
0	998	169.764204181861	10
0	1000	169.983562731668	9
0	1001	169.983562731668	8
0	1005	170.619383564464	9
0	1006	170.619383564464	10
0	1008	170.839694873127	11
0	1009	170.839694873127	12
0	1010	171.223778328872	11
0	1011	171.223778328872	10
0	1015	172.01914878116	11
0	1016	172.01914878116	12
0	1017	172.264204181861	11
0	1019	172.483562731668	10
0	1020	172.483562731668	9
0	1024	173.559994655927	10
0	1025	173.559994655927	11
0	1026	173.723778328872	10
0	1027	173.723778328872	9
0	1030	174.764204181861	8
0	1033	174.804116999039	9
0	1034	174.804116999039	10
0	1035	174.983562731668	9
0	1036	174.983562731668	8
0	1040	175.438261957262	9
0	1041	175.438261957262	10
0	1042	176.223778328872	9
0	1043	176.223778328872	8
0	1047	176.483648149326	9
0	1048	176.483648149326	10
0	1050	176.925267606739	11
0	1051	176.925267606739	12
0	1052	177.264204181861	11
0	1054	177.483562731668	10
0	1055	177.483562731668	9
0	1058	178.723778328872	8
0	1059	178.723778328872	7
0	1063	178.78448201955	8
0	1064	178.78448201955	9
0	1066	179.573004407502	10
0	1067	179.573004407502	11
0	1068	179.764204181861	10
0	1070	179.983562731668	9
0	1071	179.983562731668	8
0	1075	181.076140412559	9
0	1076	181.076140412559	10
0	1077	181.223778328872	9
0	1078	181.223778328872	8
0	1082	181.901352175366	9
0	1083	181.901352175366	10
0	1084	182.264204181861	9
0	1086	182.483562731668	8
0	1087	182.483562731668	7
0	1091	183.480282272199	8
0	1092	183.480282272199	9
0	1093	183.723778328872	8
0	1094	183.723778328872	7
0	1098	184.073262666385	8
0	1099	184.073262666385	9
0	1101	184.441469705862	10
0	1102	184.441469705862	11
0	1103	184.764204181861	10
0	1105	184.983562731668	9
0	1106	184.983562731668	8
0	1110	185.402259620941	9
0	1111	185.402259620941	10
0	1113	186.079426259555	11
0	1114	186.079426259555	12
0	1115	186.223778328872	11
0	1116	186.223778328872	10
0	1119	187.264204181861	9
0	1121	187.483562731668	8
0	1122	187.483562731668	7
0	1126	187.681833232157	8
0	1127	187.681833232157	9
0	1128	188.723778328872	8
0	1129	188.723778328872	7
0	1133	189.586353337019	8
0	1134	189.586353337019	9
0	1135	189.764204181861	8
0	1137	189.983562731668	7
0	1138	189.983562731668	6
0	1142	190.691532662738	7
0	1143	190.691532662738	8
0	1145	190.752102320734	9
0	1146	190.752102320734	10
0	1148	190.996963024221	11
0	1149	190.996963024221	12
0	1150	191.223778328872	11
0	1151	191.223778328872	10
0	1154	192.264204181861	9
0	1156	192.483562731668	8
0	1157	192.483562731668	7
0	1161	192.637487823774	8
0	1162	192.637487823774	9
0	1164	192.999919187337	10
0	1165	192.999919187337	11
0	1166	193.723778328872	10
0	1167	193.723778328872	9
0	1171	193.834202130834	10
0	1172	193.834202130834	11
0	1174	194.240818575696	12
0	1175	194.240818575696	13
0	1176	194.764204181861	12
0	1178	194.983562731668	11
0	1179	194.983562731668	10
0	1183	195.102227441407	11
0	1184	195.102227441407	12
0	1186	196.012886318091	13
0	1187	196.012886318091	14
0	1189	196.078936374977	15
0	1190	196.078936374977	16
0	1191	196.223778328872	15
0	1192	196.223778328872	14
0	1196	196.920556384769	15
0	1197	196.920556384769	16
0	1198	197.264204181861	15
0	1200	197.483562731668	14
0	1201	197.483562731668	13
0	1205	198.120313814037	14
0	1206	198.120313814037	15
0	1208	198.66240722791	16
0	1209	198.66240722791	17
0	1210	198.723778328872	16
0	1211	198.723778328872	15
0	1215	199.304852376205	16
0	1216	199.304852376205	17
0	1217	199.764204181861	16
0	1219	199.983562731668	15
0	1220	199.983562731668	14
0	1224	200.702433234653	15
0	1225	200.702433234653	16
0	1226	201.223778328872	15
0	1227	201.223778328872	14
0	1231	202.10835871337	15
0	1232	202.10835871337	16
0	1233	202.264204181861	15
0	1235	202.483562731668	14
0	1236	202.483562731668	13
0	1240	203.053507870153	14
0	1241	203.053507870153	15
0	1243	203.270384435469	16
0	1244	203.270384435469	17
0	1245	203.723778328872	16
0	1246	203.723778328872	15
0	1250	204.442137777626	16
0	1251	204.442137777626	17
0	1252	204.764204181861	16
0	1254	204.983562731668	15
0	1255	204.983562731668	14
0	1259	205.127436851732	15
0	1260	205.127436851732	16
0	1261	206.223778328872	15
0	1262	206.223778328872	14
0	1265	207.264204181861	13
0	1267	207.483562731668	12
0	1268	207.483562731668	11
0	1272	208.435591259394	12
0	1273	208.435591259394	13
0	1274	208.723778328872	12
0	1275	208.723778328872	11
0	1278	209.764204181861	10
0	1280	209.983562731668	9
0	1281	209.983562731668	8
0	1285	210.102138157008	9
0	1286	210.102138157008	10
0	1287	211.223778328872	9
0	1288	211.223778328872	8
0	1292	211.715452169295	9
0	1293	211.715452169295	10
0	1294	212.264204181861	9
0	1296	212.483562731668	8
0	1297	212.483562731668	7
0	1301	212.667113048794	8
0	1302	212.667113048794	9
0	1304	212.853497542039	10
0	1305	212.853497542039	11
0	1307	213.625655550084	12
0	1308	213.625655550084	13
0	1309	213.723778328872	12
0	1310	213.723778328872	11
0	1314	214.041599894188	12
0	1315	214.041599894188	13
0	1317	214.102723633608	14
0	1318	214.102723633608	15
0	1319	214.764204181861	14
0	1321	214.983562731668	13
0	1322	214.983562731668	12
0	1326	215.713130867785	13
0	1327	215.713130867785	14
0	1329	216.061690384746	15
0	1330	216.061690384746	16
0	1331	216.223778328872	15
0	1332	216.223778328872	14
0	1336	216.800178276006	15
0	1337	216.800178276006	16
0	1338	217.264204181861	15
0	1340	217.483562731668	14
0	1341	217.483562731668	13
0	1344	218.723778328872	12
0	1345	218.723778328872	11
0	1349	219.002940398786	12
0	1350	219.002940398786	13
0	1351	219.764204181861	12
0	1353	219.983562731668	11
0	1354	219.983562731668	10
0	1358	220.551796129885	11
0	1359	220.551796129885	12
0	1360	221.223778328872	11
0	1361	221.223778328872	10
0	1364	222.264204181861	9
0	1367	222.412474126381	10
0	1368	222.412474126381	11
0	1369	222.483562731668	10
0	1370	222.483562731668	9
0	1373	223.723778328872	8
0	1374	223.723778328872	7
0	1378	223.830119480997	8
0	1379	223.830119480997	9
0	1380	224.764204181861	8
0	1382	224.983562731668	7
0	1383	224.983562731668	6
0	1387	225.358830879956	7
0	1388	225.358830879956	8
0	1390	225.835517881698	9
0	1391	225.835517881698	10
0	1392	226.223778328872	9
0	1393	226.223778328872	8
0	1397	226.784681088576	9
0	1398	226.784681088576	10
0	1399	227.264204181861	9
0	1401	227.483562731668	8
0	1402	227.483562731668	7
0	1406	227.816158063071	8
0	1407	227.816158063071	9
0	1409	228.640488572534	10
0	1410	228.640488572534	11
0	1411	228.723778328872	10
0	1412	228.723778328872	9
0	1416	228.841677960079	10
0	1417	228.841677960079	11
0	1418	229.764204181861	10
0	1421	229.925634224318	11
0	1422	229.925634224318	12
0	1423	229.983562731668	11
0	1424	229.983562731668	10
0	1428	230.839950947675	11
0	1429	230.839950947675	12
0	1430	231.223778328872	11
0	1431	231.223778328872	10
0	1435	232.100844199375	11
0	1436	232.100844199375	12
0	1437	232.264204181861	11
0	1439	232.483562731668	10
0	1440	232.483562731668	9
0	1444	233.156339860588	10
0	1445	233.156339860588	11
0	1446	233.723778328872	10
0	1447	233.723778328872	9
0	1451	234.000692191402	10
0	1452	234.000692191402	11
0	1453	234.764204181861	10
0	1456	234.977819813906	11
0	1457	234.977819813906	12
0	1458	234.983562731668	11
0	1459	234.983562731668	10
0	1462	236.223778328872	9
0	1463	236.223778328872	8
0	1467	236.923288541176	9
0	1468	236.923288541176	10
0	1469	237.264204181861	9
0	1471	237.483562731668	8
0	1472	237.483562731668	7
0	1476	237.893465249621	8
0	1477	237.893465249621	9
0	1479	238.317045233546	10
0	1480	238.317045233546	11
0	1481	238.723778328872	10
0	1482	238.723778328872	9
0	1485	239.764204181861	8
0	1487	239.983562731668	7
0	1488	239.983562731668	6
0	1492	240.127313910755	7
0	1493	240.127313910755	8
0	1494	241.223778328872	7
0	1495	241.223778328872	6
0	1499	241.250743681858	7
0	1500	241.250743681858	8
0	1502	241.27272784306	9
0	1503	241.27272784306	10
0	1504	242.264204181861	9
0	1507	242.305217768327	10
0	1508	242.305217768327	11
0	1509	242.483562731668	10
0	1510	242.483562731668	9
0	1514	243.050485640075	10
0	1515	243.050485640075	11
0	1516	243.723778328872	10
0	1517	243.723778328872	9
0	1521	243.850521865086	10
0	1522	243.850521865086	11
0	1523	244.764204181861	10
0	1525	244.983562731668	9
0	1526	244.983562731668	8
0	1530	246.095918250684	9
0	1531	246.095918250684	10
0	1533	246.128064220755	11
0	1534	246.128064220755	12
0	1535	246.223778328872	11
0	1536	246.223778328872	10
0	1539	247.264204181861	9
0	1541	247.483562731668	8
0	1542	247.483562731668	7
0	1546	248.225137507386	8
0	1547	248.225137507386	9
0	1548	248.723778328872	8
0	1549	248.723778328872	7
0	1552	249.764204181861	6
0	1555	249.84092448165	7
0	1556	249.84092448165	8
0	1557	249.983562731668	7
0	1558	249.983562731668	6
0	1562	251.00386368341	7
0	1563	251.00386368341	8
0	1564	251.223778328872	7
0	1565	251.223778328872	6
0	1568	252.264204181861	5
0	1571	252.420866959051	6
0	1572	252.420866959051	7
0	1573	252.483562731668	6
0	1574	252.483562731668	5
0	1578	252.913904190311	6
0	1579	252.913904190311	7
0	1581	253.275426077275	8
0	1582	253.275426077275	9
0	1583	253.723778328872	8
0	1584	253.723778328872	7
0	1588	253.886839253268	8
0	1589	253.886839253268	9
0	1590	254.764204181861	8
0	1592	254.983562731668	7
0	1593	254.983562731668	6
0	1597	255.267314743318	7
0	1598	255.267314743318	8
0	1599	256.223778328872	7
0	1600	256.223778328872	6
0	1603	257.264204181861	5
0	1605	257.483562731668	4
0	1606	257.483562731668	3
0	1610	257.496566474899	4
0	1611	257.496566474899	5
0	1613	257.992814393921	6
0	1614	257.992814393921	7
0	1616	258.365304502003	8
0	1617	258.365304502003	9
0	1618	258.723778328872	8
0	1619	258.723778328872	7
0	1622	259.764204181861	6
0	1624	259.983562731668	5
0	1625	259.983562731668	4
0	1629	260.041527281422	5
0	1630	260.041527281422	6
0	1632	260.644474885013	7
0	1633	260.644474885013	8
0	1634	261.223778328872	7
0	1635	261.223778328872	6
0	1639	262.222892452111	7
0	1640	262.222892452111	8
0	1641	262.264204181861	7
0	1643	262.483562731668	6
0	1644	262.483562731668	5
0	1647	263.723778328872	4
0	1648	263.723778328872	3
0	1652	264.129681810053	4
0	1653	264.129681810053	5
0	1654	264.764204181861	4
0	1657	264.968675392322	5
0	1658	264.968675392322	6
0	1659	264.983562731668	5
0	1660	264.983562731668	4
0	1663	266.223778328872	3
0	1664	266.223778328872	2
0	1668	266.731918550041	3
0	1669	266.731918550041	4
0	1670	267.264204181861	3
0	1672	267.483562731668	2
0	1673	267.483562731668	1
0	1677	267.995027754132	2
0	1678	267.995027754132	3
0	1679	268.723778328872	2
0	1680	268.723778328872	1
0	1684	269.321208938116	2
0	1685	269.321208938116	3
0	1686	269.764204181861	2
0	1688	269.983562731668	1
0	1689	269.983562731668	0
0	1693	270.45514008041	1
0	1694	270.45514008041	2
0	1696	271.041341906417	3
0	1697	271.041341906417	4
0	1698	271.223778328872	3
0	1699	271.223778328872	2
0	1702	272.264204181861	1
0	1704	272.483562731668	0
0	1710	272.866345413432	1
0	1711	273.723778328872	0
0	1717	274.726440998183	1
0	1718	274.764204181861	0
0	1728	275.966259378243	1
0	1729	275.966259378243	2
0	1730	276.223778328872	1
0	1732	277.226440998183	0
0	1738	277.759161547844	1
0	1739	277.96146582307	0
0	1745	278.375692050702	1
0	1746	278.723778328872	0
0	1749	278.889625582565	1
0	1750	278.889625582565	2
0	1752	279.680319462719	3
0	1753	279.680319462719	4
0	1754	279.726440998183	3
0	1756	280.259161547844	2
0	1758	280.46146582307	1
0	1760	280.875692050702	0
0	1766	281.495229605653	1
0	1767	282.226440998183	0
0	1770	282.524977755126	1
0	1771	282.524977755126	2
0	1772	282.759161547844	1
0	1774	282.96146582307	0
0	1780	283.456513205414	1
0	1781	283.995229605653	0
0	1784	284.615405405099	1
0	1785	284.615405405099	2
0	1786	284.726440998183	1
0	1788	285.259161547844	0
0	1801	287.136453223121	1
0	1802	287.226440998183	0
0	1805	287.266568122052	1
0	1806	287.266568122052	2
0	1807	287.759161547844	1
0	1809	288.614751588267	0
0	1815	288.910330093539	1
0	1816	289.636453223121	0
0	1822	289.795175810336	1
0	1823	290.259161547844	0
0	1829	291.178854045826	1
0	1830	291.410330093539	0
0	1836	292.27732706137	1
0	1837	292.295175810336	0
0	1843	293.645968354137	1
0	1844	293.678854045826	0
0	1847	293.877905292834	1
0	1848	293.877905292834	2
0	1849	293.910330093539	1
0	1851	294.77732706137	0
0	1857	295.239026021893	1
0	1859	295.88021573356	2
0	1860	295.88021573356	3
0	1861	296.145968354137	2
0	1863	296.178854045826	1
0	1865	296.410330093539	0
0	1868	296.830127135851	1
0	1869	296.830127135851	2
0	1870	297.27732706137	1
0	1872	297.739026021893	0
0	1875	298.08002573639	1
0	1876	298.08002573639	2
0	1877	298.645968354137	1
0	1879	298.678854045826	0
0	1920	307.165113879848	1
0	1921	307.359198300669	0
0	1934	309.521540242662	1
0	1935	309.665113879848	0
0	1938	309.766230178456	1
0	1939	309.766230178456	2
0	1940	309.859198300669	1
0	1943	310.969092827125	2
0	1944	310.969092827125	3
0	1945	311.24631147819	2
0	1946	311.24631147819	1
0	1949	312.021540242662	0
0	1969	314.839733804694	1
0	1970	314.99652264317	0
0	1976	316.145302736467	1
0	1977	316.385995382195	0
0	1990	318.05230510037	1
0	1992	318.463484009935	2
0	1993	318.463484009935	3
0	1994	318.645302736467	2
0	1996	318.885995382195	1
0	1999	319.09906757036	2
0	2000	319.09906757036	3
0	2001	319.910410927701	2
0	2002	319.910410927701	1
0	2006	320.16663673214	2
0	2007	320.16663673214	3
0	2008	320.55230510037	2
0	2011	320.85408217431	3
0	2012	320.85408217431	4
0	2013	321.145302736467	3
0	2016	321.208350398934	4
0	2017	321.208350398934	5
0	2018	321.385995382195	4
0	2021	321.844744437139	5
0	2022	321.844744437139	6
0	2023	322.410410927701	5
0	2024	322.410410927701	4
0	2028	322.895864355777	5
0	2029	322.895864355777	6
0	2030	323.05230510037	5
0	2033	323.589694938261	6
0	2034	323.589694938261	7
0	2035	323.645302736467	6
0	2037	323.885995382195	5
0	2039	324.910410927701	4
0	2040	324.910410927701	3
0	2044	325.02376751596	4
0	2045	325.02376751596	5
0	2046	325.55230510037	4
0	2048	326.145302736467	3
0	2051	326.163312993291	4
0	2052	326.163312993291	5
0	2053	326.385995382195	4
0	2056	327.056478484438	5
0	2057	327.056478484438	6
0	2058	327.410410927701	5
0	2059	327.410410927701	4
0	2063	327.821399386191	5
0	2064	327.821399386191	6
0	2065	328.05230510037	5
0	2068	328.558193104862	6
0	2069	328.558193104862	7
0	2070	328.645302736467	6
0	2072	328.885995382195	5
0	2074	329.910410927701	4
0	2075	329.910410927701	3
0	2079	330.140415963794	4
0	2080	330.140415963794	5
0	2081	330.55230510037	4
0	2083	331.145302736467	3
0	2086	331.245423822625	4
0	2087	331.245423822625	5
0	2088	331.385995382195	4
0	2091	332.381597397584	5
0	2092	332.381597397584	6
0	2093	332.410410927701	5
0	2094	332.410410927701	4
0	2097	333.05230510037	3
0	2099	333.645302736467	2
0	2101	333.885995382195	1
0	2103	334.910410927701	0
0	2109	335.061429134138	1
0	2111	335.533817393225	2
0	2112	335.533817393225	3
0	2113	335.55230510037	2
0	2116	336.03393846209	3
0	2117	336.03393846209	4
0	2118	336.145302736467	3
0	2120	336.385995382195	2
0	2122	337.410410927701	1
0	2124	337.561429134138	0
0	2127	337.700791265212	1
0	2128	337.700791265212	2
0	2129	338.05230510037	1
0	2131	338.645302736467	0
0	2137	338.93723802644	1
0	2138	339.910410927701	0
0	2155	342.021529227235	1
0	2156	342.021529227235	2
0	2157	342.410410927701	1
0	2160	342.955975598981	2
0	2161	342.955975598981	3
0	2162	343.076113906729	2
0	2163	343.076113906729	1
0	2166	344.10452001361	0
0	2193	348.806267197753	1
0	2194	349.104087550904	0
0	2200	349.722931701555	1
0	2201	350.371899592215	0
0	2207	350.568000946425	1
0	2208	351.306267197753	0
0	2214	352.031839649769	1
0	2215	352.222931701555	0
0	2218	352.831918906991	1
0	2219	352.831918906991	2
0	2220	352.871899592215	1
0	2222	353.068000946425	0
0	2225	353.30489434921	1
0	2226	353.30489434921	2
0	2227	353.806267197753	1
0	2230	353.945190511135	2
0	2231	353.945190511135	3
0	2232	354.531839649769	2
0	2234	354.722931701555	1
0	2237	355.209279605379	2
0	2238	355.209279605379	3
0	2239	355.371899592215	2
0	2241	355.568000946425	1
0	2243	356.306267197753	0
0	2270	360.351873899992	1
0	2271	361.128574108125	0
0	2277	361.522152646139	1
0	2279	361.949339287596	2
0	2280	361.949339287596	3
0	2281	362.296254862082	2
0	2282	362.296254862082	1
0	2285	362.851873899992	0
0	2288	363.255494778356	1
0	2289	363.255494778356	2
0	2290	363.628574108125	1
0	2292	364.022152646139	0
0	2295	364.563047205522	1
0	2296	364.563047205522	2
0	2297	364.796254862082	1
0	2298	364.796254862082	0
0	2333	371.338998921388	1
0	2334	372.213934553232	0
0	2340	372.956684288215	1
0	2341	373.464355015411	0
0	2358	375.826967270445	1
0	2359	375.826967270445	2
0	2360	375.964355015411	1
0	2362	376.732043815737	0
0	2368	376.798907571912	1
0	2369	377.992515218646	0
0	2386	380.436794723714	1
0	2387	380.436794723714	2
0	2388	380.492515218646	1
0	2391	381.357595843664	2
0	2392	381.357595843664	3
0	2393	381.512109310373	2
0	2394	381.512109310373	1
0	2397	382.448103983164	0
0	2403	382.589079541567	1
0	2404	382.992515218646	0
0	2407	383.793565520874	1
0	2408	383.793565520874	2
0	2409	384.012109310373	1
0	2410	384.012109310373	0
0	2414	384.132920786757	1
0	2415	384.132920786757	2
0	2416	384.948103983164	1
0	2418	385.089079541567	0
0	2421	385.228883275852	1
0	2422	385.228883275852	2
0	2423	385.492515218646	1
0	2426	385.545767070185	2
0	2427	385.545767070185	3
0	2428	386.512109310373	2
0	2429	386.512109310373	1
0	2433	387.396871318909	2
0	2434	387.396871318909	3
0	2435	387.448103983164	2
0	2437	387.589079541567	1
0	2439	387.992515218646	0
0	2442	388.256448865831	1
0	2443	388.256448865831	2
0	2444	389.012109310373	1
0	2445	389.012109310373	0
0	2452	389.955358598944	1
0	2453	390.089079541567	0
0	2459	391.19493731902	1
0	2460	391.512109310373	0
0	2480	394.773715114079	1
0	2481	395.480528538498	0
0	2487	396.137357300198	1
0	2488	396.319602799129	0
0	2494	397.234168470875	1
0	2495	397.273715114079	0
0	2515	401.075625453325	1
0	2516	401.71156027051	0
0	2522	401.796249871549	1
0	2524	402.34391085446	2
0	2525	402.34391085446	3
0	2526	402.450111346087	2
0	2527	402.450111346087	1
0	2531	402.732843755628	2
0	2532	402.732843755628	3
0	2533	403.575625453325	2
0	2536	403.633003694941	3
0	2537	403.633003694941	4
0	2539	404.184990474807	5
0	2540	404.184990474807	6
0	2541	404.21156027051	5
0	2543	404.296249871549	4
0	2545	404.950111346087	3
0	2546	404.950111346087	2
0	2550	405.559428846022	3
0	2551	405.559428846022	4
0	2552	406.075625453325	3
0	2554	406.71156027051	2
0	2556	406.796249871549	1
0	2558	407.450111346087	0
0	2564	407.461974780808	1
0	2565	408.575625453325	0
0	2568	409.047277613034	1
0	2569	409.047277613034	2
0	2570	409.21156027051	1
0	2572	409.296249871549	0
0	2582	410.434037697611	1
0	2583	410.434037697611	2
0	2584	411.075625453325	1
0	2587	411.454330029715	2
0	2588	411.454330029715	3
0	2589	411.71156027051	2
0	2591	411.796249871549	1
0	2594	412.420007399802	2
0	2595	412.420007399802	3
0	2596	412.564651573029	2
0	2597	412.564651573029	1
0	2601	413.4353757431	2
0	2602	413.4353757431	3
0	2603	413.575625453325	2
0	2606	414.145390548746	3
0	2607	414.145390548746	4
0	2608	414.21156027051	3
0	2610	414.296249871549	2
0	2613	414.821371786331	3
0	2614	414.821371786331	4
0	2615	415.064651573029	3
0	2616	415.064651573029	2
0	2620	415.819954389408	3
0	2621	415.819954389408	4
0	2622	416.075625453325	3
0	2624	416.71156027051	2
0	2626	416.796249871549	1
0	2629	417.109035622031	2
0	2630	417.109035622031	3
0	2631	417.564651573029	2
0	2632	417.564651573029	1
0	2636	417.998287483232	2
0	2637	417.998287483232	3
0	2638	418.575625453325	2
0	2641	419.139806477544	3
0	2642	419.139806477544	4
0	2643	419.21156027051	3
0	2645	419.296249871549	2
0	2647	420.064651573029	1
0	2648	420.064651573029	0
0	2652	420.302696926168	1
0	2653	420.302696926168	2
0	2655	420.553331767254	3
0	2656	420.553331767254	4
0	2658	420.63387966877	5
0	2659	420.63387966877	6
0	2660	421.075625453325	5