version 3
run k_MM1_lbqf-16-20221127-16:03:35-25264
attr configname k_MM1_lbqf
attr datetime 20221127-16:03:35
attr datetimef 20221127-160335
attr experiment k_MM1_lbqf
attr inifile omnetpp.ini
attr iterationvars "$time=2.0, $num=1, $0=53542, $1=75335, $2=34542"
attr iterationvarsd time=2.0/num=1/53542/75335/34542
attr iterationvarsf time=2.0,num=1,53542,75335,34542-
attr measurement "$time=2.0, $num=1, $0=53542, $1=75335, $2=34542"
attr network lbqfkMM1
attr processid 25264
attr repetition 0
attr replication #0
attr resultdir results
attr runnumber 16
attr seedset 16
itervar num 1
itervar time 2.0
config description "MM1 module k-times lbqf"
config network lbqfkMM1
config **.interArrivalTime "truncnormal(uniform(0.5s, 1.5s), uniform(0.25s, 0.75s))"
config **.serviceTime 2.0s
config **.c 1
config **.capacity 10000
config record-eventlog false
config **.scalar-recording true
config **.vector-recording true
config repeat 4
config seed-1-mt 53542
config seed-2-mt 75335
config seed-3-mt 34542
config output-vector-file k_MM1_lbqf-1-2.0-results/0.vec
config output-scalar-file k_MM1_lbqf-1-2.0-results/0.sca

vector 0 lbqfkMM1.mm1[0] queueLength:vector ETV
attr interpolationmode none
attr recordingmode vector
attr title "queue length"
vector 1 lbqfkMM1.mm1[0] util:vector ETV
attr interpolationmode none
attr recordingmode vector
attr title resources
0	5	10	1
0	9	11.19584491267	2
0	10	11.19584491267	3
0	11	12	2
0	17	12.325767093898	3
0	18	12.325767093898	4
0	22	13.42943874197	5
0	23	13.42943874197	6
0	24	14	5
0	30	14.847650393068	6
0	31	14.847650393068	7
0	35	15.830212002337	8
0	36	15.830212002337	9
0	37	16	8
0	43	16.361801982261	9
0	44	16.361801982261	10
0	48	17.025912039368	11
0	49	17.025912039368	12
0	50	18	11
0	56	18.630900412286	12
0	57	18.630900412286	13
0	61	19.228773777436	14
0	62	19.228773777436	15
0	63	20	14
0	69	20.190705568318	15
0	70	20.190705568318	16
0	74	21.554810014232	17
0	75	21.554810014232	18
0	76	22	17
0	82	22.5523523796	18
0	83	22.5523523796	19
0	87	23.83542272512	20
0	88	23.83542272512	21
0	92	23.88037041752	22
0	93	23.88037041752	23
0	94	24	22
0	100	24.582164892959	23
0	101	24.582164892959	24
0	102	26	23
0	108	26.065084958429	24
0	109	26.065084958429	25
0	113	27.849027401615	26
0	114	27.849027401615	27
0	115	28	26
0	121	29.395089490552	27
0	122	29.395089490552	28
0	126	29.931128452383	29
0	127	29.931128452383	30
0	128	30	29
0	134	31.33182224348	30
0	135	31.33182224348	31
0	136	32	30
0	142	32.469635212038	31
0	143	32.469635212038	32
0	147	33.152452948703	33
0	148	33.152452948703	34
0	149	34	33
0	155	34.363188967229	34
0	156	34.363188967229	35
0	160	35.338594122057	36
0	161	35.338594122057	37
0	162	36	36
0	168	36.250168886281	37
0	169	36.250168886281	38
0	173	36.935903070787	39
0	174	36.935903070787	40
0	178	37.662392389269	41
0	179	37.662392389269	42
0	180	38	41
0	183	40	40
0	189	40.46417561644	41
0	190	40.46417561644	42
0	194	40.97301016484	43
0	195	40.97301016484	44
0	199	41.263926820832	45
0	200	41.263926820832	46
0	204	41.880990334913	47
0	205	41.880990334913	48
0	206	42	47
0	212	43.318572459648	48
0	213	43.318572459648	49
0	214	44	48
0	220	44.329055297107	49
0	221	44.329055297107	50
0	222	46	49
0	228	46.089664483683	50
0	229	46.089664483683	51
0	233	47.115541809492	52
0	234	47.115541809492	53
0	238	47.752856499501	54
0	239	47.752856499501	55
0	240	48	54
0	246	48.634370660252	55
0	247	48.634370660252	56
0	251	49.722119953625	57
0	252	49.722119953625	58
0	253	50	57
0	259	51.43025577611	58
0	260	51.43025577611	59
0	261	52	58
0	267	52.582180718033	59
0	268	52.582180718033	60
0	272	53.607489436437	61
0	273	53.607489436437	62
0	274	54	61
0	280	55.040973732243	62
0	281	55.040973732243	63
0	285	55.09836953457	64
0	286	55.09836953457	65
0	287	56	64
0	293	56.878724262336	65
0	294	56.878724262336	66
0	298	57.293781051436	67
0	299	57.293781051436	68
0	300	58	67
0	306	58.260181242495	68
0	307	58.260181242495	69
0	308	60	68
0	314	60.607561326799	69
0	315	60.607561326799	70
0	319	60.786949392918	71
0	320	60.786949392918	72
0	324	61.907248105052	73
0	325	61.907248105052	74
0	326	62	73
0	332	63.825865070897	74
0	333	63.825865070897	75
0	334	64	74
0	340	64.958452805235	75
0	341	64.958452805235	76
0	345	65.791988010362	77
0	346	65.791988010362	78
0	347	66	77
0	353	66.982386117006	78
0	354	66.982386117006	79
0	358	67.760604544151	80
0	359	67.760604544151	81
0	360	68	80
0	366	69.107965859318	81
0	367	69.107965859318	82
0	371	69.625213123399	83
0	372	69.625213123399	84
0	373	70	83
0	379	71.256004507217	84
0	380	71.256004507217	85
0	384	71.962109945082	86
0	385	71.962109945082	87
0	386	72	86
0	392	73.259445624277	87
0	393	73.259445624277	88
0	394	74	87
0	400	74.857591979148	88
0	401	74.857591979148	89
0	405	75.985726968146	90
0	406	75.985726968146	91
0	407	76	90
0	413	76.220189647634	91
0	414	76.220189647634	92
0	418	76.673734742151	93
0	419	76.673734742151	94
0	423	77.911367240909	95
0	424	77.911367240909	96
0	425	78	95
0	431	78.733549948316	96
0	432	78.733549948316	97
0	436	79.755283180223	98
0	437	79.755283180223	99
0	438	80	98
0	444	81.304195782626	99
0	445	81.304195782626	100
0	446	82	99
0	452	82.179001988681	100
0	453	82.179001988681	101
0	457	83.268408985861	102
0	458	83.268408985861	103
0	459	84	102
0	465	84.160392276792	103
0	466	84.160392276792	104
0	470	84.924578471765	105
0	471	84.924578471765	106
0	475	85.882540575897	107
0	476	85.882540575897	108
0	477	86	107
0	483	87.021392442922	108
0	484	87.021392442922	109
0	488	87.730574870534	110
0	489	87.730574870534	111
0	490	88	110
0	496	89.180566528108	111
0	497	89.180566528108	112
0	498	90	111
0	504	91.795916736396	112
0	505	91.795916736396	113
0	506	92	112
0	512	93.246793516085	113
0	513	93.246793516085	114
0	514	94	113
0	520	94.328274358825	114
0	521	94.328274358825	115
0	525	94.404064906676	116
0	526	94.404064906676	117
0	530	95.035975500513	118
0	531	95.035975500513	119
0	535	95.426589617131	120
0	536	95.426589617131	121
0	540	95.940775454196	122
0	541	95.940775454196	123
0	542	96	122
0	548	97.774320052096	123
0	549	97.774320052096	124
0	550	98	123
0	556	98.928295262697	124
0	557	98.928295262697	125
0	558	100	124
0	564	100.7095781284	125
0	565	100.7095781284	126
0	569	101.873406569443	127
0	570	101.873406569443	128
0	571	102	127
0	577	102.46010587519	128
0	578	102.46010587519	129
0	582	102.803884935149	130
0	583	102.803884935149	131
0	587	103.217470248096	132
0	588	103.217470248096	133
0	589	104	132
0	595	104.017159889977	133
0	596	104.017159889977	134
0	600	104.966584635038	135
0	601	104.966584635038	136
0	605	105.556839819715	137
0	606	105.556839819715	138
0	607	106	137
0	613	106.735971502142	138
0	614	106.735971502142	139
0	618	107.638710535335	140
0	619	107.638710535335	141
0	620	108	140
0	626	108.302017176412	141
0	627	108.302017176412	142
0	631	108.643514035562	143
0	632	108.643514035562	144
0	633	110	143
0	639	110.392283398853	144
0	640	110.392283398853	145
0	644	111.293350723644	146
0	645	111.293350723644	147
0	646	112	146
0	652	112.607368490631	147
0	653	112.607368490631	148
0	654	114	147
0	660	114.049212378287	148
0	661	114.049212378287	149
0	665	114.648145943949	150
0	666	114.648145943949	151
0	670	115.101036741399	152
0	671	115.101036741399	153
0	672	116	152
0	678	116.60578680145	153
0	679	116.60578680145	154
0	683	117.989398819976	155
0	684	117.989398819976	156
0	685	118	155
0	691	119.440259600267	156
0	692	119.440259600267	157
0	693	120	156
0	699	120.419537709269	157
0	700	120.419537709269	158
0	704	120.926647474809	159
0	705	120.926647474809	160
0	706	122	159
0	712	122.320403307791	160
0	713	122.320403307791	161
0	717	122.898219703553	162
0	718	122.898219703553	163
0	722	123.975382160071	164
0	723	123.975382160071	165
0	724	124	164
0	730	125.624924426295	165
0	731	125.624924426295	166
0	732	126	165
0	738	126.752190905755	166
0	739	126.752190905755	167
0	740	128	166
0	746	128.051205486411	167
0	747	128.051205486411	168
0	751	128.567105358996	169
0	752	128.567105358996	170
0	756	129.929487246478	171
0	757	129.929487246478	172
0	758	130	171
0	764	131.287204468547	172
0	765	131.287204468547	173
0	766	132	172
0	772	132.288336230457	173
0	773	132.288336230457	174
0	777	133.222024602374	175
0	778	133.222024602374	176
0	779	134	175
0	785	134.261978916694	176
0	786	134.261978916694	177
0	790	134.351470227534	178
0	791	134.351470227534	179
0	795	135.189662052891	180
0	796	135.189662052891	181
0	800	135.854399398336	182
0	801	135.854399398336	183
0	802	136	182
0	808	137.413639071684	183
0	809	137.413639071684	184
0	810	138	183
0	816	138.340513746248	184
0	817	138.340513746248	185
0	821	139.44379577614	186
0	822	139.44379577614	187
0	823	140	186
0	829	141.015577717921	187
0	830	141.015577717921	188
0	834	141.348816459581	189
0	835	141.348816459581	190
0	836	142	189
0	842	142.694389938756	190
0	843	142.694389938756	191
0	844	144	190
0	850	144.226435625392	191
0	851	144.226435625392	192
0	855	145.389042515133	193
0	856	145.389042515133	194
0	860	145.797686409048	195
0	861	145.797686409048	196
0	862	146	195
0	868	146.573045667354	196
0	869	146.573045667354	197
0	873	147.31472251437	198
0	874	147.31472251437	199
0	875	148	198
0	881	148.343137239796	199
0	882	148.343137239796	200
0	886	149.695521055622	201
0	887	149.695521055622	202
0	888	150	201
0	894	150.661356646005	202
0	895	150.661356646005	203
0	899	151.474734537825	204
0	900	151.474734537825	205
0	901	152	204
0	907	152.445452758746	205
0	908	152.445452758746	206
0	912	153.431727234038	207
0	913	153.431727234038	208
0	914	154	207
0	920	154.796396446689	208
0	921	154.796396446689	209
0	922	156	208
0	928	156.694257569342	209
0	929	156.694257569342	210
0	933	157.870604050807	211
0	934	157.870604050807	212
0	935	158	211
0	941	159.026274154567	212
0	942	159.026274154567	213
0	943	160	212
0	949	161.031165629151	213
0	950	161.031165629151	214
0	951	162	213
0	957	162.49460253057	214
0	958	162.49460253057	215
0	962	163.626692316604	216
0	963	163.626692316604	217
0	964	164	216
0	970	165.66842573889	217
0	971	165.66842573889	218
0	972	166	217
0	978	166.067321476977	218
0	979	166.067321476977	219
0	983	167.072729450035	220
0	984	167.072729450035	221
0	988	167.935616426828	222
0	989	167.935616426828	223
0	990	168	222
0	996	168.741960957801	223
0	997	168.741960957801	224
0	1001	168.943059725028	225
0	1002	168.943059725028	226
0	1003	170	225
0	1009	170.677705935314	226
0	1010	170.677705935314	227
0	1014	171.277894364657	228
0	1015	171.277894364657	229
0	1016	172	228
0	1022	172.329301789864	229
0	1023	172.329301789864	230
0	1024	174	229
0	1030	174.293769550774	230
0	1031	174.293769550774	231
0	1035	175.708590043347	232
0	1036	175.708590043347	233
0	1037	176	232
0	1043	177.518630282006	233
0	1044	177.518630282006	234
0	1045	178	233
0	1051	178.42174094228	234
0	1052	178.42174094228	235
0	1053	180	234
0	1059	180.226510402207	235
0	1060	180.226510402207	236
0	1061	182	235
0	1067	182.434306425909	236
0	1068	182.434306425909	237
0	1072	183.243114161604	238
0	1073	183.243114161604	239
0	1077	183.797438680952	240
0	1078	183.797438680952	241
0	1079	184	240
0	1085	185.450837763123	241
0	1086	185.450837763123	242
0	1087	186	241
0	1093	186.731810577524	242
0	1094	186.731810577524	243
0	1098	187.448159938735	244
0	1099	187.448159938735	245
0	1100	188	244
0	1106	188.521332868376	245
0	1107	188.521332868376	246
0	1111	189.206018331708	247
0	1112	189.206018331708	248
0	1113	190	247
0	1119	190.776883330541	248
0	1120	190.776883330541	249
0	1121	192	248
0	1127	192.105368123923	249
0	1128	192.105368123923	250
0	1132	192.498451129564	251
0	1133	192.498451129564	252
0	1137	193.711236911205	253
0	1138	193.711236911205	254
0	1139	194	253
0	1145	194.867890445417	254
0	1146	194.867890445417	255
0	1150	195.653621451707	256
0	1151	195.653621451707	257
0	1152	196	256
0	1158	196.616230673474	257
0	1159	196.616230673474	258
0	1160	198	257
0	1166	198.179782771755	258
0	1167	198.179782771755	259
0	1171	199.673527634572	260
0	1172	199.673527634572	261
0	1173	200	260
0	1179	201.390513430811	261
0	1180	201.390513430811	262
0	1181	202	261
0	1187	203.156021362043	262
0	1188	203.156021362043	263
0	1192	203.933803435756	264
0	1193	203.933803435756	265
0	1194	204	264
0	1200	204.888896374165	265
0	1201	204.888896374165	266
0	1202	206	265
0	1208	206.2479432111	266
0	1209	206.2479432111	267
0	1213	207.612039989432	268
0	1214	207.612039989432	269
0	1215	208	268
0	1221	208.062590453237	269
0	1222	208.062590453237	270
0	1226	209.056756249414	271
0	1227	209.056756249414	272
0	1228	210	271
0	1234	210.690800414214	272
0	1235	210.690800414214	273
0	1239	211.721115991829	274
0	1240	211.721115991829	275
0	1241	212	274
0	1247	212.10279945006	275
0	1248	212.10279945006	276
0	1249	214	275
0	1255	214.116218396098	276
0	1256	214.116218396098	277
0	1260	215.672216618344	278
0	1261	215.672216618344	279
0	1262	216	278
0	1268	216.179032275379	279
0	1269	216.179032275379	280
0	1273	216.834048718927	281
0	1274	216.834048718927	282
0	1278	217.571762367917	283
0	1279	217.571762367917	284
0	1283	217.702333362812	285
0	1284	217.702333362812	286
0	1285	218	285
0	1291	218.451589041148	286
0	1292	218.451589041148	287
0	1296	218.817948401478	288
0	1297	218.817948401478	289
0	1298	220	288
0	1304	220.16797629034	289
0	1305	220.16797629034	290
0	1309	221.830234843476	291
0	1310	221.830234843476	292
0	1311	222	291
0	1317	222.825343158008	292
0	1318	222.825343158008	293
0	1322	223.92148797881	294
0	1323	223.92148797881	295
0	1324	224	294
0	1330	224.326999809725	295
0	1331	224.326999809725	296
0	1335	225.36887850956	297
0	1336	225.36887850956	298
0	1337	226	297
0	1343	226.909795880459	298
0	1344	226.909795880459	299
0	1348	227.874740052796	300
0	1349	227.874740052796	301
0	1350	228	300
0	1356	228.754614010131	301
0	1357	228.754614010131	302
0	1358	230	301
0	1364	230.471480898028	302
0	1365	230.471480898028	303
0	1369	230.820101997596	304
0	1370	230.820101997596	305
0	1374	231.626608644607	306
0	1375	231.626608644607	307
0	1376	232	306
0	1382	232.758238766014	307
0	1383	232.758238766014	308
0	1384	234	307
0	1390	234.030472749779	308
0	1391	234.030472749779	309
0	1395	235.582559930592	310
0	1396	235.582559930592	311
0	1397	236	310
0	1403	236.406567597849	311
0	1404	236.406567597849	312
0	1408	237.466816997745	313
0	1409	237.466816997745	314
0	1410	238	313
0	1416	239.102359721887	314
0	1417	239.102359721887	315
0	1418	240	314
0	1424	241.673851301288	315
0	1425	241.673851301288	316
0	1426	242	315
0	1432	242.493311453533	316
0	1433	242.493311453533	317
0	1437	243.70783177444	318
0	1438	243.70783177444	319
0	1439	244	318
0	1445	244.358380341461	319
0	1446	244.358380341461	320
0	1450	245.474115779854	321
0	1451	245.474115779854	322
0	1452	246	321
0	1458	247.167341789387	322
0	1459	247.167341789387	323
0	1463	247.535533740677	324
0	1464	247.535533740677	325
0	1465	248	324
0	1471	249.000420915222	325
0	1472	249.000420915222	326
0	1476	249.322534904955	327
0	1477	249.322534904955	328
0	1478	250	327
0	1484	250.267915398513	328
0	1485	250.267915398513	329
0	1489	251.083431991812	330
0	1490	251.083431991812	331
0	1491	252	330
0	1497	252.487290624416	331
0	1498	252.487290624416	332
0	1502	253.692834961088	333
0	1503	253.692834961088	334
0	1504	254	333
0	1510	254.965427554987	334
0	1511	254.965427554987	335
0	1512	256	334
0	1518	256.805839453817	335
0	1519	256.805839453817	336
0	1520	258	335
0	1526	258.469101426539	336
0	1527	258.469101426539	337
0	1531	258.864574186563	338
0	1532	258.864574186563	339
0	1536	259.915358912873	340
0	1537	259.915358912873	341
0	1538	260	340
0	1544	260.823787211722	341
0	1545	260.823787211722	342
0	1546	262	341
0	1552	262.458985042725	342
0	1553	262.458985042725	343
0	1557	263.125825853779	344
0	1558	263.125825853779	345
0	1562	263.825971810207	346
0	1563	263.825971810207	347
0	1564	264	346
0	1570	265.175741342227	347
0	1571	265.175741342227	348
0	1572	266	347
0	1578	266.331395064898	348
0	1579	266.331395064898	349
0	1583	267.941497076979	350
0	1584	267.941497076979	351
0	1585	268	350
0	1591	269.247955106792	351
0	1592	269.247955106792	352
0	1593	270	351
0	1599	270.582848402957	352
0	1600	270.582848402957	353
0	1604	271.492199332205	354
0	1605	271.492199332205	355
0	1606	272	354
0	1612	273.050848977304	355
0	1613	273.050848977304	356
0	1617	273.622501813917	357
0	1618	273.622501813917	358
0	1619	274	357
0	1625	274.136026173387	358
0	1626	274.136026173387	359
0	1630	274.480846422944	360
0	1631	274.480846422944	361
0	1632	276	360
0	1638	276.969737735645	361
0	1639	276.969737735645	362
0	1643	277.175683294755	363
0	1644	277.175683294755	364
0	1648	277.530420160287	365
0	1649	277.530420160287	366
0	1653	277.770722227712	367
0	1654	277.770722227712	368
0	1655	278	367
0	1661	278.473471568354	368
0	1662	278.473471568354	369
0	1666	279.519065680986	370
0	1667	279.519065680986	371
0	1668	280	370
0	1674	280.520122398891	371
0	1675	280.520122398891	372
0	1679	281.505146340327	373
0	1680	281.505146340327	374
0	1681	282	373
0	1687	283.380688146766	374
0	1688	283.380688146766	375
0	1692	283.961102600941	376
0	1693	283.961102600941	377
0	1694	284	376
0	1700	284.574592965429	377
0	1701	284.574592965429	378
0	1705	285.219898527279	379
0	1706	285.219898527279	380
0	1710	285.593709950368	381
0	1711	285.593709950368	382
0	1715	285.821771628274	383
0	1716	285.821771628274	384
0	1717	286	383
0	1723	286.905300171498	384
0	1724	286.905300171498	385
0	1728	287.828940598405	386
0	1729	287.828940598405	387
0	1730	288	386
0	1736	288.761491030612	387
0	1737	288.761491030612	388
0	1741	289.882634853904	389
0	1742	289.882634853904	390
0	1743	290	389
0	1749	291.165073578256	390
0	1750	291.165073578256	391
0	1754	291.335595947154	392
0	1755	291.335595947154	393
0	1756	292	392
0	1762	292.078110076559	393
0	1763	292.078110076559	394
0	1767	292.702580356976	395
0	1768	292.702580356976	396
0	1769	294	395
0	1775	295.532375944683	396
0	1776	295.532375944683	397
0	1777	296	396
0	1783	296.268415648719	397
0	1784	296.268415648719	398
0	1788	297.406341242005	399
0	1789	297.406341242005	400
0	1790	298	399
0	1796	298.395034693185	400
0	1797	298.395034693185	401
0	1801	299.538759459356	402
0	1802	299.538759459356	403
0	1803	300	402
0	1809	300.094823881201	403
0	1810	300.094823881201	404
0	1811	302	403
0	1817	302.111266753985	404
0	1818	302.111266753985	405
0	1822	303.219141000143	406
0	1823	303.219141000143	407
0	1824	304	406
0	1830	304.176215360628	407
0	1831	304.176215360628	408
0	1835	305.071521215289	409
0	1836	305.071521215289	410
0	1840	305.449417288278	411
0	1841	305.449417288278	412
0	1842	306	411
0	1848	307.191220528373	412
0	1849	307.191220528373	413
0	1850	308	412
0	1856	308.233694232125	413
0	1857	308.233694232125	414
0	1861	309.128298047991	415
0	1862	309.128298047991	416
0	1863	310	415
0	1869	310.003617619833	416
0	1870	310.003617619833	417
0	1874	310.08532734771	418
0	1875	310.08532734771	419
0	1879	311.593650351024	420
0	1880	311.593650351024	421
0	1881	312	420
0	1887	312.904990950053	421
0	1888	312.904990950053	422
0	1889	314	421
0	1895	314.997849344167	422
0	1896	314.997849344167	423
0	1900	315.293716639818	424
0	1901	315.293716639818	425
0	1902	316	424
0	1908	317.046515714177	425
0	1909	317.046515714177	426
0	1913	317.780167981727	427
0	1914	317.780167981727	428
0	1915	318	427
0	1921	319.054649253895	428
0	1922	319.054649253895	429
0	1926	319.751603092659	430
0	1927	319.751603092659	431
0	1928	320	430
0	1934	321.616452989027	431
0	1935	321.616452989027	432
0	1936	322	431
0	1942	322.176966645975	432
0	1943	322.176966645975	433
0	1947	323.456408667196	434
0	1948	323.456408667196	435
0	1949	324	434
0	1955	324.032147502751	435
0	1956	324.032147502751	436
0	1960	324.295249230157	437
0	1961	324.295249230157	438
0	1965	325.002382179441	439
0	1966	325.002382179441	440
0	1967	326	439
0	1973	326.24032798946	440
0	1974	326.24032798946	441
0	1978	327.855503421385	442
0	1979	327.855503421385	443
0	1980	328	442
0	1986	328.32117492527	443
0	1987	328.32117492527	444
0	1991	329.512566279242	445
0	1992	329.512566279242	446
0	1996	329.751032230272	447
0	1997	329.751032230272	448
0	1998	330	447
0	2004	331.098492916195	448
0	2005	331.098492916195	449
0	2006	332	448
0	2012	332.675257242125	449
0	2013	332.675257242125	450
0	2017	332.953807302414	451
0	2018	332.953807302414	452
0	2022	333.484292322854	453
0	2023	333.484292322854	454
0	2024	334	453
0	2030	334.222435871378	454
0	2031	334.222435871378	455
0	2035	334.893564116702	456
0	2036	334.893564116702	457
0	2037	336	456
0	2043	337.789303483952	457
0	2044	337.789303483952	458
0	2045	338	457
0	2051	338.425498654211	458
0	2052	338.425498654211	459
0	2056	339.713310051441	460
0	2057	339.713310051441	461
0	2058	340	460
0	2064	340.815112565418	461
0	2065	340.815112565418	462
0	2066	342	461
0	2072	342.103454531469	462
0	2073	342.103454531469	463
0	2074	344	462
0	2080	344.350441540115	463
0	2081	344.350441540115	464
0	2085	345.674053465859	465
0	2086	345.674053465859	466
0	2087	346	465
0	2093	346.024802815847	466
0	2094	346.024802815847	467
0	2098	346.872488253726	468
0	2099	346.872488253726	469
0	2103	347.552524152258	470
0	2104	347.552524152258	471
0	2105	348	470
0	2111	349.013210949786	471
0	2112	349.013210949786	472
0	2113	350	471
0	2119	350.211817958638	472
0	2120	350.211817958638	473
0	2124	351.590874240609	474
0	2125	351.590874240609	475
0	2126	352	474
0	2132	353.14192052511	475
0	2133	353.14192052511	476
0	2134	354	475
0	2140	355.060138824614	476
0	2141	355.060138824614	477
0	2142	356	476
0	2148	356.385481091936	477
0	2149	356.385481091936	478
0	2153	357.372153792001	479
0	2154	357.372153792001	480
0	2155	358	479
0	2161	358.495377028237	480
0	2162	358.495377028237	481
0	2166	359.004069871425	482
0	2167	359.004069871425	483
0	2168	360	482
0	2174	360.22580503216	483
0	2175	360.22580503216	484
0	2176	362	483
0	2182	362.149565089182	484
0	2183	362.149565089182	485
0	2187	362.728325371475	486
0	2188	362.728325371475	487
0	2192	363.487440200432	488
0	2193	363.487440200432	489
0	2194	364	488
0	2200	365.106012552707	489
0	2201	365.106012552707	490
0	2202	366	489
0	2208	366.504415725068	490
0	2209	366.504415725068	491
0	2213	367.10507433249	492
0	2214	367.10507433249	493
0	2215	368	492
0	2221	368.032594047686	493
0	2222	368.032594047686	494
0	2226	369.089473358828	495
0	2227	369.089473358828	496
0	2228	370	495
0	2234	370.548838924776	496
0	2235	370.548838924776	497
0	2239	370.972429410464	498
0	2240	370.972429410464	499
0	2241	372	498
0	2247	372.805778678918	499
0	2248	372.805778678918	500
0	2252	372.903453087774	501
0	2253	372.903453087774	502
0	2257	373.992848837829	503
0	2258	373.992848837829	504
0	2259	374	503
0	2265	375.290047160893	504
0	2266	375.290047160893	505
0	2270	375.969689784002	506
0	2271	375.969689784002	507
0	2272	376	506
0	2278	377.826184017495	507
0	2279	377.826184017495	508
0	2280	378	507
0	2286	379.585951773976	508
0	2287	379.585951773976	509
0	2288	380	508
0	2294	381.603591679334	509
0	2295	381.603591679334	510
0	2296	382	509
0	2302	382.226407460712	510
0	2303	382.226407460712	511
0	2304	384	510
0	2310	384.149859976461	511
0	2311	384.149859976461	512
0	2315	385.085789948248	513
0	2316	385.085789948248	514
0	2320	385.848419546592	515
0	2321	385.848419546592	516
0	2322	386	515
0	2328	386.587472576432	516
0	2329	386.587472576432	517
0	2333	387.507124954036	518
0	2334	387.507124954036	519
0	2335	388	518
0	2341	388.892035356378	519
0	2342	388.892035356378	520
0	2346	389.020839462954	521
0	2347	389.020839462954	522
0	2351	389.689755636885	523
0	2352	389.689755636885	524
0	2353	390	523
0	2359	390.450966754865	524
0	2360	390.450966754865	525
0	2361	392	524
0	2367	392.195964384542	525
0	2368	392.195964384542	526
0	2372	392.554113032995	527
0	2373	392.554113032995	528
0	2377	393.559002128938	529
0	2378	393.559002128938	530
0	2379	394	529
0	2385	395.122756776484	530
0	2386	395.122756776484	531
0	2390	395.61472465373	532
0	2391	395.61472465373	533
0	2395	395.848558502318	534
0	2396	395.848558502318	535
0	2397	396	534
0	2403	397.368257978996	535
0	2404	397.368257978996	536
0	2405	398	535
0	2411	398.324367521134	536
0	2412	398.324367521134	537
0	2416	399.319929457977	538
0	2417	399.319929457977	539
0	2418	400	538
0	2424	400.062868410813	539
0	2425	400.062868410813	540
0	2429	401.23895713927	541
0	2430	401.23895713927	542
0	2431	402	541
0	2437	402.76326159467	542
0	2438	402.76326159467	543
0	2442	403.66407457089	544
0	2443	403.66407457089	545
0	2444	404	544
0	2450	404.735393219464	545
0	2451	404.735393219464	546
0	2455	405.823588103574	547
0	2456	405.823588103574	548
0	2457	406	547
0	2463	406.689082269382	548
0	2464	406.689082269382	549
0	2465	408	548
0	2471	408.33508370786	549
0	2472	408.33508370786	550
0	2476	408.499855775917	551
0	2477	408.499855775917	552
0	2481	409.3573239469	553
0	2482	409.3573239469	554
0	2483	410	553
0	2489	410.045562579389	554
0	2490	410.045562579389	555
0	2494	411.465305623691	556
0	2495	411.465305623691	557
0	2499	411.973594449077	558
0	2500	411.973594449077	559
0	2501	412	558
0	2507	412.158751144161	559
0	2508	412.158751144161	560
0	2512	413.572604258611	561
0	2513	413.572604258611	562
0	2514	414	561
0	2520	414.710693861761	562
0	2521	414.710693861761	563
0	2525	415.964486729521	564
0	2526	415.964486729521	565
0	2527	416	564
0	2533	416.901015276174	565
0	2534	416.901015276174	566
0	2538	417.804589996656	567
0	2539	417.804589996656	568
0	2540	418	567
0	2546	418.547458358957	568
0	2547	418.547458358957	569
0	2551	419.402167010849	570
0	2552	419.402167010849	571
0	2553	420	570
0	2559	420.631930984544	571
0	2560	420.631930984544	572
0	2561	422	571
0	2567	422.643452898471	572
0	2568	422.643452898471	573
0	2569	424	572
0	2575	424.297906529804	573
0	2576	424.297906529804	574
0	2580	424.731860370965	575
0	2581	424.731860370965	576
0	2585	425.83181307064	577
0	2586	425.83181307064	578
0	2587	426	577
0	2593	426.740931502229	578
0	2594	426.740931502229	579
0	2598	427.777002067528	580
0	2599	427.777002067528	581
0	2600	428	580
0	2606	428.657952158541	581
0	2607	428.657952158541	582
0	2611	428.976846161888	583
0	2612	428.976846161888	584
0	2616	429.548307404384	585
0	2617	429.548307404384	586
0	2618	430	585
0	2624	430.77011375813	586
0	2625	430.77011375813	587
0	2629	431.330625972796	588
0	2630	431.330625972796	589
0	2631	432	588
0	2637	432.790198681712	589
0	2638	432.790198681712	590
0	2639	434	589
0	2645	434.090615253062	590
0	2646	434.090615253062	591
0	2650	435.661896102796	592
0	2651	435.661896102796	593
0	2652	436	592
0	2658	436.248443009545	593
0	2659	436.248443009545	594
0	2663	437.166668956923	595
0	2664	437.166668956923	596
0	2665	438	595
0	2668	440	594
0	2674	440.218337780447	595
0	2675	440.218337780447	596
0	2679	440.814521380375	597
0	2680	440.814521380375	598
0	2684	441.756322598082	599
0	2685	441.756322598082	600
0	2689	441.925431777139	601
0	2690	441.925431777139	602
0	2691	442	601
0	2697	442.814688100175	602
0	2698	442.814688100175	603
0	2699	444	602
0	2705	444.539493956773	603
0	2706	444.539493956773	604
0	2710	445.965124886687	605
0	2711	445.965124886687	606
0	2712	446	605
0	2718	447.519935070986	606
0	2719	447.519935070986	607
0	2720	448	606
0	2726	449.431977445027	607
0	2727	449.431977445027	608
0	2731	449.769019311511	609
0	2732	449.769019311511	610
0	2736	449.779964287003	611
0	2737	449.779964287003	612
0	2738	450	611
0	2744	451.335580464908	612
0	2745	451.335580464908	613
0	2746	452	612
0	2752	452.048641469841	613
0	2753	452.048641469841	614
0	2757	452.551604579518	615
0	2758	452.551604579518	616
0	2762	453.494024917031	617
0	2763	453.494024917031	618
0	2764	454	617
0	2770	454.367772305941	618
0	2771	454.367772305941	619
0	2775	455.68687689089	620
0	2776	455.68687689089	621
0	2777	456	620
0	2783	457.06998522293	621
0	2784	457.06998522293	622
0	2785	458	621
0	2791	458.827739905141	622
0	2792	458.827739905141	623
0	2796	459.931715095605	624
0	2797	459.931715095605	625
0	2798	460	624
0	2804	460.077678958447	625
0	2805	460.077678958447	626
0	2809	461.524662499724	627
0	2810	461.524662499724	628
0	2811	462	627
0	2817	463.072638426831	628
0	2818	463.072638426831	629
0	2822	463.916043133369	630
0	2823	463.916043133369	631
0	2824	464	630
0	2830	464.650415801357	631
0	2831	464.650415801357	632
0	2835	465.10758642578	633
0	2836	465.10758642578	634
0	2840	465.815132342748	635
0	2841	465.815132342748	636
0	2842	466	635
0	2848	466.836762843224	636
0	2849	466.836762843224	637
0	2850	468	636
0	2856	468.57039087065	637
0	2857	468.57039087065	638
0	2861	469.211634322734	639
0	2862	469.211634322734	640
0	2863	470	639
0	2869	470.195264980917	640
0	2870	470.195264980917	641
0	2874	471.93225959675	642
0	2875	471.93225959675	643
0	2876	472	642
0	2882	473.406577636305	643
0	2883	473.406577636305	644
0	2884	474	643
0	2890	474.890780453562	644
0	2891	474.890780453562	645
0	2892	476	644
0	2898	476.449033451668	645
0	2899	476.449033451668	646
0	2903	477.304818368026	647
0	2904	477.304818368026	648
0	2905	478	647
0	2911	478.698839186213	648
0	2912	478.698839186213	649
0	2913	480	648
0	2919	480.096178574801	649
0	2920	480.096178574801	650
0	2924	481.729174356254	651
0	2925	481.729174356254	652
0	2926	482	651
0	2932	482.463597052051	652
0	2933	482.463597052051	653
0	2937	482.973871558475	654
0	2938	482.973871558475	655
0	2942	483.774557193518	656
0	2943	483.774557193518	657
0	2944	484	656
0	2950	485.421109594666	657
0	2951	485.421109594666	658
0	2952	486	657
0	2958	486.248771327273	658
0	2959	486.248771327273	659
0	2963	486.621658631124	660
0	2964	486.621658631124	661
0	2968	486.782224277779	662
0	2969	486.782224277779	663
0	2973	487.416507637495	664
0	2974	487.416507637495	665
0	2975	488	664
0	2981	488.968346647251	665
0	2982	488.968346647251	666
0	2983	490	665
0	2989	490.644880068037	666
0	2990	490.644880068037	667
0	2994	491.003681590421	668
0	2995	491.003681590421	669
0	2996	492	668
0	3002	492.396695546702	669
0	3003	492.396695546702	670
0	3004	494	669
0	3010	494.087977872129	670
0	3011	494.087977872129	671
0	3015	495.253649384334	672
0	3016	495.253649384334	673
0	3017	496	672
0	3023	497.850742374746	673
0	3024	497.850742374746	674
0	3025	498	673
0	3031	499.866889221264	674
0	3032	499.866889221264	675
0	3033	500	674
0	3039	500.043718835309	675
0	3040	500.043718835309	676
0	3044	501.377110003079	677
0	3045	501.377110003079	678
0	3049	501.462067185041	679