version 3
run k_MM1_lbqf-17-20221127-16:03:35-25264
attr configname k_MM1_lbqf
attr datetime 20221127-16:03:35
attr datetimef 20221127-160335
attr experiment k_MM1_lbqf
attr inifile omnetpp.ini
attr iterationvars "$time=2.0, $num=1, $0=45732, $1=35463, $2=67563"
attr iterationvarsd time=2.0/num=1/45732/35463/67563
attr iterationvarsf time=2.0,num=1,45732,35463,67563-
attr measurement "$time=2.0, $num=1, $0=45732, $1=35463, $2=67563"
attr network lbqfkMM1
attr processid 25264
attr repetition 1
attr replication #1
attr resultdir results
attr runnumber 17
attr seedset 17
itervar num 1
itervar time 2.0
config description "MM1 module k-times lbqf"
config network lbqfkMM1
config **.interArrivalTime "truncnormal(uniform(0.5s, 1.5s), uniform(0.25s, 0.75s))"
config **.serviceTime 2.0s
config **.c 1
config **.capacity 10000
config record-eventlog false
config **.scalar-recording true
config **.vector-recording true
config repeat 4
config seed-1-mt 45732
config seed-2-mt 35463
config seed-3-mt 67563
config output-vector-file k_MM1_lbqf-1-2.0-results/1.vec
config output-scalar-file k_MM1_lbqf-1-2.0-results/1.sca

vector 0 lbqfkMM1.mm1[0] queueLength:vector ETV
attr interpolationmode none
attr recordingmode vector
attr title "queue length"
vector 1 lbqfkMM1.mm1[0] util:vector ETV
attr interpolationmode none
attr recordingmode vector
attr title resources
0	5	10	1
0	9	11.028643109619	2
0	10	11.028643109619	3
0	14	11.811175414536	4
0	15	11.811175414536	5
0	16	12	4
0	22	13.628848837022	5
0	23	13.628848837022	6
0	24	14	5
0	30	14.443419859448	6
0	31	14.443419859448	7
0	35	15.601028173087	8
0	36	15.601028173087	9
0	37	16	8
0	43	16.849124457664	9
0	44	16.849124457664	10
0	45	18	9
0	51	18.33082025825	10
0	52	18.33082025825	11
0	56	18.779947367674	12
0	57	18.779947367674	13
0	61	19.703565950951	14
0	62	19.703565950951	15
0	63	20	14
0	69	21.045107492807	15
0	70	21.045107492807	16
0	74	21.222686402834	17
0	75	21.222686402834	18
0	79	21.899776485113	19
0	80	21.899776485113	20
0	81	22	19
0	87	22.745250286032	20
0	88	22.745250286032	21
0	92	23.200963007781	22
0	93	23.200963007781	23
0	94	24	22
0	100	24.652088964453	23
0	101	24.652088964453	24
0	105	25.60977320355	25
0	106	25.60977320355	26
0	107	26	25
0	113	26.890524606253	26
0	114	26.890524606253	27
0	118	27.692154156491	28
0	119	27.692154156491	29
0	120	28	28
0	126	28.924066111108	29
0	127	28.924066111108	30
0	128	30	29
0	134	30.49029462778	30
0	135	30.49029462778	31
0	139	31.637184149009	32
0	140	31.637184149009	33
0	141	32	32
0	147	33.979243668975	33
0	148	33.979243668975	34
0	149	34	33
0	152	36	32
0	158	36.293946609641	33
0	159	36.293946609641	34
0	163	37.765843104838	35
0	164	37.765843104838	36
0	165	38	35
0	171	39.841499243828	36
0	172	39.841499243828	37
0	173	40	36
0	179	41.212772912248	37
0	180	41.212772912248	38
0	181	42	37
0	187	42.506931999021	38
0	188	42.506931999021	39
0	192	43.040972961595	40
0	193	43.040972961595	41
0	194	44	40
0	200	45.718494286931	41
0	201	45.718494286931	42
0	202	46	41
0	208	46.396623527965	42
0	209	46.396623527965	43
0	210	48	42
0	216	48.637261271908	43
0	217	48.637261271908	44
0	221	49.480634485282	45
0	222	49.480634485282	46
0	223	50	45
0	229	50.827937818138	46
0	230	50.827937818138	47
0	234	50.919433099952	48
0	235	50.919433099952	49
0	239	51.27451646194	50
0	240	51.27451646194	51
0	244	51.982679170568	52
0	245	51.982679170568	53
0	246	52	52
0	252	52.64890792013	53
0	253	52.64890792013	54
0	257	52.927134201271	55
0	258	52.927134201271	56
0	262	53.534951723956	57
0	263	53.534951723956	58
0	264	54	57
0	270	55.195291431499	58
0	271	55.195291431499	59
0	275	55.935165503176	60
0	276	55.935165503176	61
0	277	56	60
0	283	57.281679613511	61
0	284	57.281679613511	62
0	285	58	61
0	291	58.471648608545	62
0	292	58.471648608545	63
0	296	59.759175843944	64
0	297	59.759175843944	65
0	298	60	64
0	304	61.218178744617	65
0	305	61.218178744617	66
0	309	61.779112230108	67
0	310	61.779112230108	68
0	311	62	67
0	317	63.196399727911	68
0	318	63.196399727911	69
0	322	63.460716521729	70
0	323	63.460716521729	71
0	324	64	70
0	330	64.237125545302	71
0	331	64.237125545302	72
0	335	65.16147562248	73
0	336	65.16147562248	74
0	337	66	73
0	343	66.829932006191	74
0	344	66.829932006191	75
0	348	67.686385939222	76
0	349	67.686385939222	77
0	350	68	76
0	356	68.92902378259	77
0	357	68.92902378259	78
0	361	69.303333363462	79
0	362	69.303333363462	80
0	363	70	79
0	369	70.133480685433	80
0	370	70.133480685433	81
0	371	72	80
0	377	72.357936814469	81
0	378	72.357936814469	82
0	382	73.84077149259	83
0	383	73.84077149259	84
0	384	74	83
0	390	74.89121044181	84
0	391	74.89121044181	85
0	392	76	84
0	398	76.085524480217	85
0	399	76.085524480217	86
0	403	76.46829343334	87
0	404	76.46829343334	88
0	408	77.83991189057	89
0	409	77.83991189057	90
0	410	78	89
0	416	79.509526737784	90
0	417	79.509526737784	91
0	418	80	90
0	424	81.647023887885	91
0	425	81.647023887885	92
0	426	82	91
0	432	82.594612605678	92
0	433	82.594612605678	93
0	437	83.161151324487	94
0	438	83.161151324487	95
0	442	83.84934142417	96
0	443	83.84934142417	97
0	444	84	96
0	450	85.08493105275	97
0	451	85.08493105275	98
0	455	85.891586128676	99
0	456	85.891586128676	100
0	457	86	99
0	463	86.454216983914	100
0	464	86.454216983914	101
0	468	87.679813762055	102
0	469	87.679813762055	103
0	473	87.891145681693	104
0	474	87.891145681693	105
0	475	88	104
0	481	88.055138658052	105
0	482	88.055138658052	106
0	486	89.621960207519	107
0	487	89.621960207519	108
0	488	90	107
0	494	90.958218127459	108
0	495	90.958218127459	109
0	496	92	108
0	502	92.304482399083	109
0	503	92.304482399083	110
0	507	93.233689235381	111
0	508	93.233689235381	112
0	509	94	111
0	515	94.03623014533	112
0	516	94.03623014533	113
0	520	95.646146257402	114
0	521	95.646146257402	115
0	522	96	114
0	528	96.006815316238	115
0	529	96.006815316238	116
0	530	98	115
0	536	98.149698190271	116
0	537	98.149698190271	117
0	541	99.463415827739	118
0	542	99.463415827739	119
0	543	100	118
0	549	101.318720746235	119
0	550	101.318720746235	120
0	551	102	119
0	557	102.754656348827	120
0	558	102.754656348827	121
0	562	102.989836953544	122
0	563	102.989836953544	123
0	567	103.740466799107	124
0	568	103.740466799107	125
0	569	104	124
0	575	104.086817075551	125
0	576	104.086817075551	126
0	580	105.181968223962	127
0	581	105.181968223962	128
0	585	105.651333682717	129
0	586	105.651333682717	130
0	587	106	129
0	593	106.109217921784	130
0	594	106.109217921784	131
0	598	107.40188977332	132
0	599	107.40188977332	133
0	603	107.93192682725	134
0	604	107.93192682725	135
0	605	108	134
0	611	108.702790347103	135
0	612	108.702790347103	136
0	616	109.830120876683	137
0	617	109.830120876683	138
0	618	110	137
0	624	111.717447890982	138
0	625	111.717447890982	139
0	626	112	138
0	632	112.672805615658	139
0	633	112.672805615658	140
0	637	113.856899947707	141
0	638	113.856899947707	142
0	639	114	141
0	645	114.648166077679	142
0	646	114.648166077679	143
0	647	116	142
0	653	116.435710995047	143
0	654	116.435710995047	144
0	655	118	143
0	661	118.204008088516	144
0	662	118.204008088516	145
0	666	119.010757746629	146
0	667	119.010757746629	147
0	668	120	146
0	674	120.413800736481	147
0	675	120.413800736481	148
0	679	120.74459864193	149
0	680	120.74459864193	150
0	684	121.828955713305	151
0	685	121.828955713305	152
0	686	122	151
0	692	122.908713452166	152
0	693	122.908713452166	153
0	694	124	152
0	700	124.334157935814	153
0	701	124.334157935814	154
0	705	124.401929184971	155
0	706	124.401929184971	156
0	710	124.694353522528	157
0	711	124.694353522528	158
0	715	125.843753358306	159
0	716	125.843753358306	160
0	717	126	159
0	723	126.861922360517	160
0	724	126.861922360517	161
0	728	127.325832526023	162
0	729	127.325832526023	163
0	733	127.893791163121	164
0	734	127.893791163121	165
0	735	128	164
0	741	129.009593152775	165
0	742	129.009593152775	166
0	743	130	165
0	749	130.069985655029	166
0	750	130.069985655029	167
0	754	131.722963323833	168
0	755	131.722963323833	169
0	756	132	168
0	762	132.013471264613	169
0	763	132.013471264613	170
0	767	133.387857786445	171
0	768	133.387857786445	172
0	769	134	171
0	775	134.34367071992	172
0	776	134.34367071992	173
0	780	135.963901228225	174
0	781	135.963901228225	175
0	782	136	174
0	788	137.302847415294	175
0	789	137.302847415294	176
0	790	138	175
0	796	138.281384131547	176
0	797	138.281384131547	177
0	801	139.154802199747	178
0	802	139.154802199747	179
0	803	140	178
0	809	141.484551063312	179
0	810	141.484551063312	180
0	811	142	179
0	817	142.348862774655	180
0	818	142.348862774655	181
0	822	143.868955835754	182
0	823	143.868955835754	183
0	824	144	182
0	830	144.286738030459	183
0	831	144.286738030459	184
0	835	145.376223060261	185
0	836	145.376223060261	186
0	837	146	185
0	843	146.254768796486	186
0	844	146.254768796486	187
0	848	147.691451317566	188
0	849	147.691451317566	189
0	850	148	188
0	856	149.764327959427	189
0	857	149.764327959427	190
0	858	150	189
0	864	150.691509250161	190
0	865	150.691509250161	191
0	869	151.519368514331	192
0	870	151.519368514331	193
0	871	152	192
0	877	152.869803876968	193
0	878	152.869803876968	194
0	879	154	193
0	885	154.397599308566	194
0	886	154.397599308566	195
0	890	155.560175217867	196
0	891	155.560175217867	197
0	892	156	196
0	898	157.496218560388	197
0	899	157.496218560388	198
0	903	157.705304777209	199
0	904	157.705304777209	200
0	908	157.753363545169	201
0	909	157.753363545169	202
0	910	158	201
0	916	159.227157354786	202
0	917	159.227157354786	203
0	918	160	202
0	924	160.70170927052	203
0	925	160.70170927052	204
0	926	162	203
0	932	162.317207877014	204
0	933	162.317207877014	205
0	937	163.63456317737	206
0	938	163.63456317737	207
0	939	164	206
0	945	164.422403891506	207
0	946	164.422403891506	208
0	950	165.079830888904	209
0	951	165.079830888904	210
0	955	165.923269680949	211
0	956	165.923269680949	212
0	957	166	211
0	963	166.423289511008	212
0	964	166.423289511008	213
0	968	166.529976053715	214
0	969	166.529976053715	215
0	973	166.842786921857	216
0	974	166.842786921857	217
0	978	167.386866915147	218
0	979	167.386866915147	219
0	983	167.883754236352	220
0	984	167.883754236352	221
0	985	168	220
0	991	168.840592049286	221
0	992	168.840592049286	222
0	996	169.124440314028	223
0	997	169.124440314028	224
0	998	170	223
0	1004	171.366969618611	224
0	1005	171.366969618611	225
0	1006	172	224
0	1012	172.323674048101	225
0	1013	172.323674048101	226
0	1017	172.646335594439	227
0	1018	172.646335594439	228
0	1022	173.38271840572	229
0	1023	173.38271840572	230
0	1024	174	229
0	1030	175.13452158967	230
0	1031	175.13452158967	231
0	1035	175.686659367658	232
0	1036	175.686659367658	233
0	1037	176	232
0	1043	176.657807647398	233
0	1044	176.657807647398	234
0	1048	177.634194902793	235
0	1049	177.634194902793	236
0	1050	178	235
0	1056	179.085660182929	236
0	1057	179.085660182929	237
0	1058	180	236
0	1064	180.438521488035	237
0	1065	180.438521488035	238
0	1069	180.864259807099	239
0	1070	180.864259807099	240
0	1074	181.431281531743	241
0	1075	181.431281531743	242
0	1079	181.70892806376	243
0	1080	181.70892806376	244
0	1084	181.852733799395	245
0	1085	181.852733799395	246
0	1086	182	245
0	1092	182.883699179466	246
0	1093	182.883699179466	247
0	1097	183.765932973224	248
0	1098	183.765932973224	249
0	1099	184	248
0	1105	184.234184224105	249
0	1106	184.234184224105	250
0	1110	185.256550314177	251
0	1111	185.256550314177	252
0	1112	186	251
0	1118	186.918574670108	252
0	1119	186.918574670108	253
0	1120	188	252
0	1126	188.517100375227	253
0	1127	188.517100375227	254
0	1131	188.619708359997	255
0	1132	188.619708359997	256
0	1133	190	255
0	1139	190.571073087629	256
0	1140	190.571073087629	257
0	1141	192	256
0	1147	192.334924453718	257
0	1148	192.334924453718	258
0	1152	192.562799986937	259
0	1153	192.562799986937	260
0	1157	193.419566947643	261
0	1158	193.419566947643	262
0	1159	194	261
0	1165	194.119192461832	262
0	1166	194.119192461832	263
0	1170	194.644233166111	264
0	1171	194.644233166111	265
0	1172	196	264
0	1178	196.200574893723	265
0	1179	196.200574893723	266
0	1183	196.8114825457	267
0	1184	196.8114825457	268
0	1188	197.638761770108	269
0	1189	197.638761770108	270
0	1190	198	269
0	1196	199.008456099815	270
0	1197	199.008456099815	271
0	1198	200	270
0	1204	200.049669448527	271
0	1205	200.049669448527	272
0	1209	201.082362089166	273
0	1210	201.082362089166	274
0	1211	202	273
0	1217	202.98728138988	274
0	1218	202.98728138988	275
0	1222	203.791194149642	276
0	1223	203.791194149642	277
0	1224	204	276
0	1230	205.068559831986	277
0	1231	205.068559831986	278
0	1235	205.885360269366	279
0	1236	205.885360269366	280
0	1237	206	279
0	1243	206.488231147354	280
0	1244	206.488231147354	281
0	1245	208	280
0	1251	208.40098658237	281
0	1252	208.40098658237	282
0	1256	209.738904586271	283
0	1257	209.738904586271	284
0	1258	210	283
0	1264	210.635501936418	284
0	1265	210.635501936418	285
0	1269	211.090432079514	286
0	1270	211.090432079514	287
0	1274	211.506107206079	288
0	1275	211.506107206079	289
0	1276	212	288
0	1282	212.258927344437	289
0	1283	212.258927344437	290
0	1287	213.838097636601	291
0	1288	213.838097636601	292
0	1289	214	291
0	1295	214.808890220204	292
0	1296	214.808890220204	293
0	1300	215.577830431892	294
0	1301	215.577830431892	295
0	1302	216	294
0	1308	216.602536600938	295
0	1309	216.602536600938	296
0	1313	217.675207338886	297
0	1314	217.675207338886	298
0	1315	218	297
0	1321	219.032365325367	298
0	1322	219.032365325367	299
0	1323	220	298
0	1329	220.142783925521	299
0	1330	220.142783925521	300
0	1334	221.310365832839	301
0	1335	221.310365832839	302
0	1336	222	301
0	1342	223.200262880987	302
0	1343	223.200262880987	303
0	1344	224	302
0	1350	224.471502263028	303
0	1351	224.471502263028	304
0	1355	224.752718742675	305
0	1356	224.752718742675	306
0	1360	225.772033278742	307
0	1361	225.772033278742	308
0	1362	226	307
0	1368	226.914291229989	308
0	1369	226.914291229989	309
0	1370	228	308
0	1376	228.339523383905	309
0	1377	228.339523383905	310
0	1381	229.243225403584	311
0	1382	229.243225403584	312
0	1386	229.880108875135	313
0	1387	229.880108875135	314
0	1388	230	313
0	1394	230.711148676984	314
0	1395	230.711148676984	315
0	1399	231.383332545094	316
0	1400	231.383332545094	317
0	1401	232	316
0	1407	232.344562334783	317
0	1408	232.344562334783	318
0	1412	233.828710032678	319
0	1413	233.828710032678	320
0	1414	234	319
0	1420	234.536659579179	320
0	1421	234.536659579179	321
0	1422	236	320
0	1428	236.477203986057	321
0	1429	236.477203986057	322
0	1433	237.279489660589	323
0	1434	237.279489660589	324
0	1435	238	323
0	1441	238.063644968228	324
0	1442	238.063644968228	325
0	1446	239.565456188774	326
0	1447	239.565456188774	327
0	1448	240	326
0	1454	240.506472369522	327
0	1455	240.506472369522	328
0	1459	241.930930393554	329
0	1460	241.930930393554	330
0	1461	242	329
0	1467	242.999630361307	330
0	1468	242.999630361307	331
0	1472	243.276239117039	332
0	1473	243.276239117039	333
0	1477	243.812257585748	334
0	1478	243.812257585748	335
0	1479	244	334
0	1485	244.687635386662	335
0	1486	244.687635386662	336
0	1490	244.914583695183	337
0	1491	244.914583695183	338
0	1495	245.820375424646	339
0	1496	245.820375424646	340
0	1497	246	339
0	1503	247.211695244057	340
0	1504	247.211695244057	341
0	1505	248	340
0	1511	248.237363597538	341
0	1512	248.237363597538	342
0	1516	249.977676009717	343
0	1517	249.977676009717	344
0	1518	250	343
0	1524	250.905787959011	344
0	1525	250.905787959011	345
0	1529	251.942817555885	346
0	1530	251.942817555885	347
0	1531	252	346
0	1537	252.423576102286	347
0	1538	252.423576102286	348
0	1542	253.503447889677	349
0	1543	253.503447889677	350
0	1544	254	349
0	1550	254.464335069723	350
0	1551	254.464335069723	351
0	1555	254.947988440655	352
0	1556	254.947988440655	353
0	1557	256	352
0	1563	256.13972399472	353
0	1564	256.13972399472	354
0	1568	256.850908468036	355
0	1569	256.850908468036	356
0	1573	257.376066400445	357
0	1574	257.376066400445	358
0	1578	257.533894266288	359
0	1579	257.533894266288	360
0	1580	258	359
0	1586	259.078101817454	360
0	1587	259.078101817454	361
0	1591	259.194222469848	362
0	1592	259.194222469848	363
0	1593	260	362
0	1599	261.285502926415	363
0	1600	261.285502926415	364
0	1601	262	363
0	1607	262.3294583559	364
0	1608	262.3294583559	365
0	1612	263.624941658144	366
0	1613	263.624941658144	367
0	1614	264	366
0	1620	264.198615448506	367
0	1621	264.198615448506	368
0	1625	264.972673476194	369
0	1626	264.972673476194	370
0	1630	265.635877974605	371
0	1631	265.635877974605	372
0	1632	266	371
0	1638	266.972257204193	372
0	1639	266.972257204193	373
0	1643	267.232795578435	374
0	1644	267.232795578435	375
0	1645	268	374
0	1651	268.171531879598	375
0	1652	268.171531879598	376
0	1656	269.565643448031	377
0	1657	269.565643448031	378
0	1658	270	377
0	1664	271.028859996598	378
0	1665	271.028859996598	379
0	1666	272	378
0	1672	272.018472699124	379
0	1673	272.018472699124	380
0	1677	272.037833674187	381
0	1678	272.037833674187	382
0	1682	273.029575729567	383
0	1683	273.029575729567	384
0	1687	273.78475271345	385
0	1688	273.78475271345	386
0	1689	274	385
0	1695	274.208702234003	386
0	1696	274.208702234003	387
0	1700	275.28352203539	388
0	1701	275.28352203539	389
0	1702	276	388
0	1708	276.138513942035	389
0	1709	276.138513942035	390
0	1713	277.056365260392	391
0	1714	277.056365260392	392
0	1718	277.424451347975	393
0	1719	277.424451347975	394
0	1720	278	393
0	1726	278.568731802089	394
0	1727	278.568731802089	395
0	1731	278.965515318499	396
0	1732	278.965515318499	397
0	1733	280	396
0	1739	280.603911918432	397
0	1740	280.603911918432	398
0	1744	280.9211948639	399
0	1745	280.9211948639	400
0	1746	282	399
0	1752	282.657516297219	400
0	1753	282.657516297219	401
0	1757	283.426193709442	402
0	1758	283.426193709442	403
0	1759	284	402
0	1765	285.23640626898	403
0	1766	285.23640626898	404
0	1770	285.771611109954	405
0	1771	285.771611109954	406
0	1772	286	405
0	1778	286.145086571968	406
0	1779	286.145086571968	407
0	1783	287.029160918895	408
0	1784	287.029160918895	409
0	1788	287.824412712557	410
0	1789	287.824412712557	411
0	1790	288	410
0	1796	288.63375574412	411
0	1797	288.63375574412	412
0	1798	290	411
0	1804	290.379594891451	412
0	1805	290.379594891451	413
0	1809	291.0063605006	414
0	1810	291.0063605006	415
0	1814	291.057038832176	416
0	1815	291.057038832176	417
0	1816	292	416
0	1822	292.276594320564	417
0	1823	292.276594320564	418
0	1827	293.063712282527	419
0	1828	293.063712282527	420
0	1832	293.830734705797	421
0	1833	293.830734705797	422
0	1834	294	421
0	1840	295.412512920561	422
0	1841	295.412512920561	423
0	1842	296	422
0	1848	296.159943207948	423
0	1849	296.159943207948	424
0	1850	298	423
0	1856	298.043174467927	424
0	1857	298.043174467927	425
0	1861	299.123737407784	426
0	1862	299.123737407784	427
0	1863	300	426
0	1869	300.771403712676	427
0	1870	300.771403712676	428
0	1874	301.559406168941	429
0	1875	301.559406168941	430
0	1879	301.614173153027	431
0	1880	301.614173153027	432
0	1881	302	431
0	1887	302.557856186596	432
0	1888	302.557856186596	433
0	1892	303.680288066762	434
0	1893	303.680288066762	435
0	1894	304	434
0	1900	304.504045672515	435
0	1901	304.504045672515	436
0	1905	305.624868794685	437
0	1906	305.624868794685	438
0	1907	306	437
0	1913	306.615390807298	438
0	1914	306.615390807298	439
0	1918	307.944763877146	440
0	1919	307.944763877146	441
0	1920	308	440
0	1926	308.548042357546	441
0	1927	308.548042357546	442
0	1931	309.773053789111	443
0	1932	309.773053789111	444
0	1933	310	443
0	1939	310.967634287401	444
0	1940	310.967634287401	445
0	1941	312	444
0	1947	312.105797962452	445
0	1948	312.105797962452	446
0	1952	313.757057484671	447
0	1953	313.757057484671	448
0	1954	314	447
0	1960	314.765891022086	448
0	1961	314.765891022086	449
0	1962	316	448
0	1968	316.228024503961	449
0	1969	316.228024503961	450
0	1973	317.432153270938	451
0	1974	317.432153270938	452
0	1975	318	451
0	1981	319.242911060429	452
0	1982	319.242911060429	453
0	1983	320	452
0	1989	320.924357960735	453
0	1990	320.924357960735	454
0	1991	322	453
0	1997	323.087078835278	454
0	1998	323.087078835278	455
0	1999	324	454
0	2005	324.949146574723	455
0	2006	324.949146574723	456
0	2010	325.91896034779	457
0	2011	325.91896034779	458
0	2012	326	457
0	2018	327.001946271414	458
0	2019	327.001946271414	459
0	2023	327.76366388398	460
0	2024	327.76366388398	461
0	2025	328	460
0	2031	329.353740113749	461
0	2032	329.353740113749	462
0	2036	329.902310822552	463
0	2037	329.902310822552	464
0	2038	330	463
0	2044	331.278083581136	464
0	2045	331.278083581136	465
0	2046	332	464
0	2052	332.846385969446	465
0	2053	332.846385969446	466
0	2057	333.612396696398	467
0	2058	333.612396696398	468
0	2059	334	467
0	2065	334.148533740923	468
0	2066	334.148533740923	469
0	2070	335.238249423749	470
0	2071	335.238249423749	471
0	2075	335.524266766178	472
0	2076	335.524266766178	473
0	2077	336	472
0	2083	337.002096381214	473
0	2084	337.002096381214	474
0	2088	337.850235956049	475
0	2089	337.850235956049	476
0	2090	338	475
0	2096	338.473125459993	476
0	2097	338.473125459993	477
0	2101	339.671014697642	478
0	2102	339.671014697642	479
0	2103	340	478
0	2109	340.388369482608	479
0	2110	340.388369482608	480
0	2114	340.818274830894	481
0	2115	340.818274830894	482
0	2119	341.651237609455	483
0	2120	341.651237609455	484
0	2121	342	483
0	2127	343.394520524013	484
0	2128	343.394520524013	485
0	2129	344	484
0	2135	344.115849662304	485
0	2136	344.115849662304	486
0	2140	345.840242887511	487
0	2141	345.840242887511	488
0	2142	346	487
0	2148	346.017824409907	488
0	2149	346.017824409907	489
0	2153	347.038614423093	490
0	2154	347.038614423093	491
0	2155	348	490
0	2161	348.65387474376	491
0	2162	348.65387474376	492
0	2163	350	491
0	2169	350.471206393323	492
0	2170	350.471206393323	493
0	2174	351.454241729485	494
0	2175	351.454241729485	495
0	2176	352	494
0	2182	352.974098260414	495
0	2183	352.974098260414	496
0	2184	354	495
0	2190	354.631194254619	496
0	2191	354.631194254619	497
0	2195	355.18180659431	498
0	2196	355.18180659431	499
0	2197	356	498
0	2203	357.073038364424	499
0	2204	357.073038364424	500
0	2205	358	499
0	2211	358.385960882067	500
0	2212	358.385960882067	501
0	2216	359.152061843885	502
0	2217	359.152061843885	503
0	2218	360	502
0	2224	361.097332687604	503
0	2225	361.097332687604	504
0	2229	361.764744559088	505
0	2230	361.764744559088	506
0	2231	362	505
0	2237	362.183381874755	506
0	2238	362.183381874755	507
0	2242	362.528802724425	508
0	2243	362.528802724425	509
0	2247	363.770084454441	510
0	2248	363.770084454441	511
0	2249	364	510
0	2255	364.759475412341	511
0	2256	364.759475412341	512
0	2257	366	511
0	2263	366.270639222163	512
0	2264	366.270639222163	513
0	2265	368	512
0	2271	368.099659500843	513
0	2272	368.099659500843	514
0	2276	368.348344320492	515
0	2277	368.348344320492	516
0	2281	369.229548073768	517
0	2282	369.229548073768	518
0	2286	369.78414249245	519
0	2287	369.78414249245	520
0	2288	370	519
0	2294	370.739590771986	520
0	2295	370.739590771986	521
0	2299	371.402003966619	522
0	2300	371.402003966619	523
0	2301	372	522
0	2307	372.547762497616	523
0	2308	372.547762497616	524
0	2309	374	523
0	2315	374.389144707161	524
0	2316	374.389144707161	525
0	2317	376	524
0	2323	376.813797950997	525
0	2324	376.813797950997	526
0	2325	378	525
0	2331	378.57002113987	526
0	2332	378.57002113987	527
0	2336	379.99330007484	528
0	2337	379.99330007484	529
0	2338	380	528
0	2344	381.456190424806	529
0	2345	381.456190424806	530
0	2346	382	529
0	2352	383.3232583087	530
0	2353	383.3232583087	531
0	2357	383.854527932758	532
0	2358	383.854527932758	533
0	2359	384	532
0	2365	384.678526871006	533
0	2366	384.678526871006	534
0	2370	385.721398011121	535
0	2371	385.721398011121	536
0	2372	386	535
0	2378	386.279198546818	536
0	2379	386.279198546818	537
0	2383	386.868416348639	538
0	2384	386.868416348639	539
0	2385	388	538
0	2391	389.075500748467	539
0	2392	389.075500748467	540
0	2396	389.369850191701	541
0	2397	389.369850191701	542
0	2401	389.760590744479	543
0	2402	389.760590744479	544
0	2403	390	543
0	2409	390.283120997825	544
0	2410	390.283120997825	545
0	2414	391.178163035257	546
0	2415	391.178163035257	547
0	2416	392	546
0	2422	392.917472603142	547
0	2423	392.917472603142	548
0	2424	394	547
0	2430	394.129064096111	548
0	2431	394.129064096111	549
0	2432	396	548
0	2438	396.353332802339	549
0	2439	396.353332802339	550
0	2443	397.488989385692	551
0	2444	397.488989385692	552
0	2445	398	551
0	2451	398.762273828569	552
0	2452	398.762273828569	553
0	2453	400	552
0	2459	400.0864086738	553
0	2460	400.0864086738	554
0	2461	402	553
0	2467	403.20485029177	554
0	2468	403.20485029177	555
0	2469	404	554
0	2475	404.185263382108	555
0	2476	404.185263382108	556
0	2480	405.539360121296	557
0	2481	405.539360121296	558
0	2482	406	557
0	2488	407.645580060371	558
0	2489	407.645580060371	559
0	2490	408	558
0	2496	408.659983139141	559
0	2497	408.659983139141	560
0	2501	409.566999125135	561
0	2502	409.566999125135	562
0	2503	410	561
0	2509	410.549022071791	562
0	2510	410.549022071791	563
0	2514	411.088244037107	564
0	2515	411.088244037107	565
0	2516	412	564
0	2522	412.45785528494	565
0	2523	412.45785528494	566
0	2527	412.757777488717	567
0	2528	412.757777488717	568
0	2529	414	567
0	2535	414.1206659612	568
0	2536	414.1206659612	569
0	2540	414.276950295145	570
0	2541	414.276950295145	571
0	2545	415.53645262341	572
0	2546	415.53645262341	573
0	2550	415.881553842061	574
0	2551	415.881553842061	575
0	2552	416	574
0	2558	416.547061615101	575
0	2559	416.547061615101	576
0	2560	418	575
0	2566	418.448304786353	576
0	2567	418.448304786353	577
0	2571	418.895137439714	578
0	2572	418.895137439714	579
0	2573	420	578
0	2579	420.140197469118	579
0	2580	420.140197469118	580
0	2584	421.257953845147	581
0	2585	421.257953845147	582
0	2586	422	581
0	2592	423.276463801203	582
0	2593	423.276463801203	583
0	2594	424	582
0	2600	424.127485345844	583
0	2601	424.127485345844	584
0	2605	424.804937540166	585
0	2606	424.804937540166	586
0	2607	426	585
0	2613	426.516226453252	586
0	2614	426.516226453252	587
0	2618	427.493948594328	588
0	2619	427.493948594328	589
0	2620	428	588
0	2626	429.579783486703	589
0	2627	429.579783486703	590
0	2631	429.931502561636	591
0	2632	429.931502561636	592
0	2633	430	591
0	2639	430.765818506477	592
0	2640	430.765818506477	593
0	2644	431.761875574975	594
0	2645	431.761875574975	595
0	2646	432	594
0	2652	432.751775418196	595
0	2653	432.751775418196	596
0	2657	433.514793442849	597
0	2658	433.514793442849	598
0	2659	434	597
0	2665	434.433148566783	598
0	2666	434.433148566783	599
0	2670	435.392090997102	600
0	2671	435.392090997102	601
0	2672	436	600
0	2678	436.109544579909	601
0	2679	436.109544579909	602
0	2683	436.114746963201	603
0	2684	436.114746963201	604
0	2688	436.962357237236	605
0	2689	436.962357237236	606
0	2693	437.598194336218	607
0	2694	437.598194336218	608
0	2695	438	607
0	2701	439.275959204254	608
0	2702	439.275959204254	609
0	2703	440	608
0	2709	441.894277650007	609
0	2710	441.894277650007	610
0	2711	442	609
0	2717	442.770696194357	610
0	2718	442.770696194357	611
0	2722	443.787717978289	612
0	2723	443.787717978289	613
0	2724	444	612
0	2730	445.454531511772	613
0	2731	445.454531511772	614
0	2732	446	613
0	2738	446.94286520699	614
0	2739	446.94286520699	615
0	2740	448	614
0	2746	448.44468382873	615
0	2747	448.44468382873	616
0	2751	449.84065819336	617
0	2752	449.84065819336	618
0	2753	450	617
0	2759	451.370707316966	618
0	2760	451.370707316966	619
0	2764	451.690340345632	620
0	2765	451.690340345632	621
0	2766	452	620
0	2772	452.765088987641	621
0	2773	452.765088987641	622
0	2777	453.074328464304	623
0	2778	453.074328464304	624
0	2779	454	623
0	2785	454.966495652943	624
0	2786	454.966495652943	625
0	2790	455.319543980378	626
0	2791	455.319543980378	627
0	2792	456	626
0	2798	456.039949803533	627
0	2799	456.039949803533	628
0	2803	457.21426061999	629
0	2804	457.21426061999	630
0	2805	458	629
0	2811	458.056306452896	630
0	2812	458.056306452896	631
0	2816	458.815093935531	632
0	2817	458.815093935531	633
0	2821	459.361217679921	634
0	2822	459.361217679921	635
0	2823	460	634
0	2829	461.130037256434	635
0	2830	461.130037256434	636
0	2831	462	635
0	2837	462.275738655913	636
0	2838	462.275738655913	637
0	2842	463.072059579895	638
0	2843	463.072059579895	639
0	2847	463.958592190443	640
0	2848	463.958592190443	641
0	2849	464	640
0	2855	464.875161115706	641
0	2856	464.875161115706	642
0	2860	465.340889810713	643
0	2861	465.340889810713	644
0	2862	466	643
0	2868	466.377733556209	644
0	2869	466.377733556209	645
0	2873	466.873880594248	646
0	2874	466.873880594248	647
0	2878	467.83426526565	648
0	2879	467.83426526565	649
0	2880	468	648
0	2886	469.824134662299	649
0	2887	469.824134662299	650
0	2888	470	649
0	2894	471.064508921177	650
0	2895	471.064508921177	651
0	2899	471.631776267745	652
0	2900	471.631776267745	653
0	2904	471.949247933302	654
0	2905	471.949247933302	655
0	2906	472	654
0	2912	472.913529341628	655
0	2913	472.913529341628	656
0	2914	474	655
0	2920	475.002868260961	656
0	2921	475.002868260961	657
0	2922	476	656
0	2928	476.157158697017	657
0	2929	476.157158697017	658
0	2933	477.435904146865	659
0	2934	477.435904146865	660
0	2938	477.43753707917	661
0	2939	477.43753707917	662
0	2943	477.582344228667	663
0	2944	477.582344228667	664
0	2945	478	663
0	2951	478.56368573782	664
0	2952	478.56368573782	665
0	2956	479.668423964096	666
0	2957	479.668423964096	667
0	2958	480	666
0	2964	481.680569504185	667
0	2965	481.680569504185	668
0	2966	482	667
0	2972	482.584678382148	668
0	2973	482.584678382148	669
0	2977	482.936127975652	670
0	2978	482.936127975652	671
0	2979	484	670
0	2985	484.043284201533	671
0	2986	484.043284201533	672
0	2990	485.1162032903	673
0	2991	485.1162032903	674
0	2992	486	673
0	2998	486.180532332625	674
0	2999	486.180532332625	675
0	3003	487.896140989656	676
0	3004	487.896140989656	677
0	3005	488	676
0	3011	488.161686659855	677
0	3012	488.161686659855	678
0	3016	489.382143735622	679
0	3017	489.382143735622	680
0	3018	490	679
0	3024	490.238091295634	680
0	3025	490.238091295634	681
0	3029	491.411793879233	682
0	3030	491.411793879233	683
0	3031	492	682
0	3037	492.643758144936	683
0	3038	492.643758144936	684
0	3039	494	683
0	3045	494.141768665595	684
0	3046	494.141768665595	685