version 3
run k_MM1_lbqf-18-20221127-16:03:35-25264
attr configname k_MM1_lbqf
attr datetime 20221127-16:03:35
attr datetimef 20221127-160335
attr experiment k_MM1_lbqf
attr inifile omnetpp.ini
attr iterationvars "$time=2.0, $num=1, $0=47853, $1=24674, $2=96433"
attr iterationvarsd time=2.0/num=1/47853/24674/96433
attr iterationvarsf time=2.0,num=1,47853,24674,96433-
attr measurement "$time=2.0, $num=1, $0=47853, $1=24674, $2=96433"
attr network lbqfkMM1
attr processid 25264
attr repetition 2
attr replication #2
attr resultdir results
attr runnumber 18
attr seedset 18
itervar num 1
itervar time 2.0
config description "MM1 module k-times lbqf"
config network lbqfkMM1
config **.interArrivalTime "truncnormal(uniform(0.5s, 1.5s), uniform(0.25s, 0.75s))"
config **.serviceTime 2.0s
config **.c 1
config **.capacity 10000
config record-eventlog false
config **.scalar-recording true
config **.vector-recording true
config repeat 4
config seed-1-mt 47853
config seed-2-mt 24674
config seed-3-mt 96433
config output-vector-file k_MM1_lbqf-1-2.0-results/2.vec
config output-scalar-file k_MM1_lbqf-1-2.0-results/2.sca

vector 0 lbqfkMM1.mm1[0] queueLength:vector ETV
attr interpolationmode none
attr recordingmode vector
attr title "queue length"
vector 1 lbqfkMM1.mm1[0] util:vector ETV
attr interpolationmode none
attr recordingmode vector
attr title resources
0	5	10	1
0	9	10.838770919231	2
0	10	10.838770919231	3
0	11	12	2
0	17	12.41521283451	3
0	18	12.41521283451	4
0	19	14	3
0	25	14.352125199816	4
0	26	14.352125199816	5
0	30	15.727507835193	6
0	31	15.727507835193	7
0	35	15.788454659111	8
0	36	15.788454659111	9
0	37	16	8
0	43	16.421690456699	9
0	44	16.421690456699	10
0	48	16.816136518182	11
0	49	16.816136518182	12
0	53	17.495723435973	13
0	54	17.495723435973	14
0	55	18	13
0	61	18.566118908928	14
0	62	18.566118908928	15
0	63	20	14
0	69	20.402129375421	15
0	70	20.402129375421	16
0	71	22	15
0	77	22.09039955341	16
0	78	22.09039955341	17
0	82	23.36656366731	18
0	83	23.36656366731	19
0	84	24	18
0	90	25.333270826369	19
0	91	25.333270826369	20
0	92	26	19
0	98	26.269200056195	20
0	99	26.269200056195	21
0	103	27.642764566227	22
0	104	27.642764566227	23
0	105	28	22
0	111	28.726046662877	23
0	112	28.726046662877	24
0	116	29.627120870736	25
0	117	29.627120870736	26
0	118	30	25
0	124	31.286035976102	26
0	125	31.286035976102	27
0	126	32	26
0	132	32.644727252998	27
0	133	32.644727252998	28
0	137	33.769186710622	29
0	138	33.769186710622	30
0	139	34	29
0	145	34.133558667369	30
0	146	34.133558667369	31
0	150	34.591743594156	32
0	151	34.591743594156	33
0	155	35.784618862884	34
0	156	35.784618862884	35
0	157	36	34
0	163	36.334242519173	35
0	164	36.334242519173	36
0	168	37.351242587353	37
0	169	37.351242587353	38
0	173	37.657232804192	39
0	174	37.657232804192	40
0	175	38	39
0	181	39.146606394929	40
0	182	39.146606394929	41
0	183	40	40
0	189	40.514175856129	41
0	190	40.514175856129	42
0	194	41.342709934367	43
0	195	41.342709934367	44
0	199	41.630917315647	45
0	200	41.630917315647	46
0	201	42	45
0	207	43.340563227625	46
0	208	43.340563227625	47
0	209	44	46
0	215	45.154577148166	47
0	216	45.154577148166	48
0	220	45.988621293119	49
0	221	45.988621293119	50
0	222	46	49
0	225	48	48
0	231	48.181724263481	49
0	232	48.181724263481	50
0	236	49.212714739234	51
0	237	49.212714739234	52
0	238	50	51
0	244	50.424887901928	52
0	245	50.424887901928	53
0	249	51.106105886744	54
0	250	51.106105886744	55
0	251	52	54
0	257	52.11183636969	55
0	258	52.11183636969	56
0	262	53.410515832777	57
0	263	53.410515832777	58
0	267	53.991534502356	59
0	268	53.991534502356	60
0	269	54	59
0	275	55.24894373657	60
0	276	55.24894373657	61
0	280	55.677400995273	62
0	281	55.677400995273	63
0	282	56	62
0	288	56.484311191514	63
0	289	56.484311191514	64
0	293	57.466500906579	65
0	294	57.466500906579	66
0	295	58	65
0	301	58.445514931206	66
0	302	58.445514931206	67
0	306	58.92251888531	68
0	307	58.92251888531	69
0	311	59.99864988524	70
0	312	59.99864988524	71
0	313	60	70
0	319	60.862707992374	71
0	320	60.862707992374	72
0	321	62	71
0	327	62.428030830884	72
0	328	62.428030830884	73
0	329	64	72
0	335	64.147507821209	73
0	336	64.147507821209	74
0	340	65.488390049057	75
0	341	65.488390049057	76
0	342	66	75
0	348	67.351073555138	76
0	349	67.351073555138	77
0	350	68	76
0	356	69.209169064971	77
0	357	69.209169064971	78
0	358	70	77
0	364	70.140685331035	78
0	365	70.140685331035	79
0	369	71.12045827772	80
0	370	71.12045827772	81
0	374	71.151862790009	82
0	375	71.151862790009	83
0	379	71.818280580856	84
0	380	71.818280580856	85
0	381	72	84
0	387	72.969535656006	85
0	388	72.969535656006	86
0	392	73.960843506568	87
0	393	73.960843506568	88
0	394	74	87
0	400	75.446347961078	88
0	401	75.446347961078	89
0	402	76	88
0	408	76.569174892217	89
0	409	76.569174892217	90
0	413	77.254249031746	91
0	414	77.254249031746	92
0	415	78	91
0	421	78.756334101308	92
0	422	78.756334101308	93
0	423	80	92
0	429	80.751270445963	93
0	430	80.751270445963	94
0	431	82	93
0	437	82.008652858736	94
0	438	82.008652858736	95
0	442	82.702593932581	96
0	443	82.702593932581	97
0	447	83.677281339764	98
0	448	83.677281339764	99
0	449	84	98
0	455	84.950242589553	99
0	456	84.950242589553	100
0	457	86	99
0	463	86.306343822551	100
0	464	86.306343822551	101
0	468	87.190282135574	102
0	469	87.190282135574	103
0	470	88	102
0	476	89.321711560733	103
0	477	89.321711560733	104
0	478	90	103
0	484	91.195452441077	104
0	485	91.195452441077	105
0	489	91.587478536498	106
0	490	91.587478536498	107
0	491	92	106
0	497	93.375587662707	107
0	498	93.375587662707	108
0	499	94	107
0	505	94.607575671903	108
0	506	94.607575671903	109
0	507	96	108
0	513	96.254141058069	109
0	514	96.254141058069	110
0	518	96.828993768	111
0	519	96.828993768	112
0	523	97.25512619661	113
0	524	97.25512619661	114
0	528	97.651759320973	115
0	529	97.651759320973	116
0	533	97.909997175691	117
0	534	97.909997175691	118
0	535	98	117
0	541	99.065917096818	118
0	542	99.065917096818	119
0	543	100	118
0	549	101.763771020899	119
0	550	101.763771020899	120
0	551	102	119
0	557	102.503358496474	120
0	558	102.503358496474	121
0	562	103.342052376748	122
0	563	103.342052376748	123
0	564	104	122
0	570	104.583682639691	123
0	571	104.583682639691	124
0	575	105.892883471061	125
0	576	105.892883471061	126
0	577	106	125
0	583	107.388087785707	126
0	584	107.388087785707	127
0	585	108	126
0	591	108.521538468863	127
0	592	108.521538468863	128
0	596	109.542415183636	129
0	597	109.542415183636	130
0	598	110	129
0	604	110.99657661804	130
0	605	110.99657661804	131
0	606	112	130
0	612	112.207470255659	131
0	613	112.207470255659	132
0	617	113.109286510291	133
0	618	113.109286510291	134
0	622	113.949768660896	135
0	623	113.949768660896	136
0	624	114	135
0	630	115.858251340263	136
0	631	115.858251340263	137
0	632	116	136
0	638	116.593447340038	137
0	639	116.593447340038	138
0	643	117.668195054108	139
0	644	117.668195054108	140
0	645	118	139
0	651	118.639975333141	140
0	652	118.639975333141	141
0	656	119.735663793794	142
0	657	119.735663793794	143
0	658	120	142
0	664	121.195538065897	143
0	665	121.195538065897	144
0	666	122	143
0	672	122.918558968336	144
0	673	122.918558968336	145
0	677	123.955828049096	146
0	678	123.955828049096	147
0	679	124	146
0	685	125.502905828264	147
0	686	125.502905828264	148
0	687	126	147
0	693	126.774102510664	148
0	694	126.774102510664	149
0	695	128	148
0	701	128.49564421729	149
0	702	128.49564421729	150
0	706	129.069071493431	151
0	707	129.069071493431	152
0	708	130	151
0	714	130.04973147422	152
0	715	130.04973147422	153
0	719	131.91365966486	154
0	720	131.91365966486	155
0	721	132	154
0	727	132.519299911131	155
0	728	132.519299911131	156
0	729	134	155
0	735	134.011629567847	156
0	736	134.011629567847	157
0	740	134.731985866631	158
0	741	134.731985866631	159
0	745	135.759132125872	160
0	746	135.759132125872	161
0	747	136	160
0	753	136.390567448371	161
0	754	136.390567448371	162
0	758	136.46134529602	163
0	759	136.46134529602	164
0	763	137.36278667613	165
0	764	137.36278667613	166
0	765	138	165
0	771	138.168547185606	166
0	772	138.168547185606	167
0	776	139.985046081137	168
0	777	139.985046081137	169
0	778	140	168
0	784	141.090550703939	169
0	785	141.090550703939	170
0	789	141.350130669019	171
0	790	141.350130669019	172
0	794	141.61154331728	173
0	795	141.61154331728	174
0	796	142	173
0	802	142.107328633702	174
0	803	142.107328633702	175
0	807	143.217923366904	176
0	808	143.217923366904	177
0	809	144	176
0	815	144.317347166234	177
0	816	144.317347166234	178
0	820	144.742806538309	179
0	821	144.742806538309	180
0	822	146	179
0	828	146.587124732604	180
0	829	146.587124732604	181
0	833	147.040391357607	182
0	834	147.040391357607	183
0	835	148	182
0	841	149.017753648351	183
0	842	149.017753648351	184
0	843	150	183
0	849	150.224202629213	184
0	850	150.224202629213	185
0	854	150.805348954896	186
0	855	150.805348954896	187
0	856	152	186
0	862	152.433335663468	187
0	863	152.433335663468	188
0	867	153.119431923123	189
0	868	153.119431923123	190
0	872	153.479669555538	191
0	873	153.479669555538	192
0	874	154	191
0	880	155.208362336633	192
0	881	155.208362336633	193
0	885	155.375781352962	194
0	886	155.375781352962	195
0	890	155.99175756351	196
0	891	155.99175756351	197
0	892	156	196
0	898	156.621549488047	197
0	899	156.621549488047	198
0	900	158	197
0	906	158.196667942043	198
0	907	158.196667942043	199
0	911	159.992502247732	200
0	912	159.992502247732	201
0	913	160	200
0	919	161.122636157524	201
0	920	161.122636157524	202
0	921	162	201
0	927	162.538245436164	202
0	928	162.538245436164	203
0	929	164	202
0	935	164.125317272924	203
0	936	164.125317272924	204
0	940	165.125423430965	205
0	941	165.125423430965	206
0	945	165.831563126704	207
0	946	165.831563126704	208
0	947	166	207
0	953	166.596911923459	208
0	954	166.596911923459	209
0	958	167.051736705075	210
0	959	167.051736705075	211
0	960	168	210
0	966	168.186138661431	211
0	967	168.186138661431	212
0	971	169.272310759031	213
0	972	169.272310759031	214
0	973	170	213
0	979	170.242284785825	214
0	980	170.242284785825	215
0	984	170.679248915744	216
0	985	170.679248915744	217
0	989	171.343047855308	218
0	990	171.343047855308	219
0	991	172	218
0	997	173.312444212924	219
0	998	173.312444212924	220
0	999	174	219
0	1005	174.248020401048	220
0	1006	174.248020401048	221
0	1010	175.522710978808	222
0	1011	175.522710978808	223
0	1012	176	222
0	1018	176.39798812392	223
0	1019	176.39798812392	224
0	1020	178	223
0	1026	178.318199056715	224
0	1027	178.318199056715	225
0	1031	178.675639947965	226
0	1032	178.675639947965	227
0	1033	180	226
0	1039	180.14725969657	227
0	1040	180.14725969657	228
0	1044	181.82435434241	229
0	1045	181.82435434241	230
0	1046	182	229
0	1052	182.09021772148	230
0	1053	182.09021772148	231
0	1057	183.001608234911	232
0	1058	183.001608234911	233
0	1062	183.324021509133	234
0	1063	183.324021509133	235
0	1064	184	234
0	1070	184.067193196369	235
0	1071	184.067193196369	236
0	1075	184.681749287639	237
0	1076	184.681749287639	238
0	1080	185.944184533654	239
0	1081	185.944184533654	240
0	1082	186	239
0	1088	187.266929670799	240
0	1089	187.266929670799	241
0	1090	188	240
0	1096	188.233042379109	241
0	1097	188.233042379109	242
0	1101	188.791447794121	243
0	1102	188.791447794121	244
0	1103	190	243
0	1109	191.508252708636	244
0	1110	191.508252708636	245
0	1111	192	244
0	1117	192.006881987154	245
0	1118	192.006881987154	246
0	1122	192.540912044938	247
0	1123	192.540912044938	248
0	1127	192.87987269067	249
0	1128	192.87987269067	250
0	1129	194	249
0	1135	194.264487015392	250
0	1136	194.264487015392	251
0	1140	194.401137397338	252
0	1141	194.401137397338	253
0	1145	194.56070150478	254
0	1146	194.56070150478	255
0	1150	195.328569847463	256
0	1151	195.328569847463	257
0	1152	196	256
0	1158	196.795983227628	257
0	1159	196.795983227628	258
0	1160	198	257
0	1166	198.748052510892	258
0	1167	198.748052510892	259
0	1168	200	258
0	1174	200.116781001349	259
0	1175	200.116781001349	260
0	1179	201.219461685486	261
0	1180	201.219461685486	262
0	1184	201.656540511685	263
0	1185	201.656540511685	264
0	1186	202	263
0	1192	202.989536476055	264
0	1193	202.989536476055	265
0	1194	204	264
0	1200	204.084066570062	265
0	1201	204.084066570062	266
0	1205	205.085268449415	267
0	1206	205.085268449415	268
0	1207	206	267
0	1213	206.218717521537	268
0	1214	206.218717521537	269
0	1218	207.409823202491	270
0	1219	207.409823202491	271
0	1220	208	270
0	1226	208.160641655736	271
0	1227	208.160641655736	272
0	1231	209.689549322056	273
0	1232	209.689549322056	274
0	1233	210	273
0	1239	210.201448257345	274
0	1240	210.201448257345	275
0	1244	211.00614973942	276
0	1245	211.00614973942	277
0	1249	211.93965891196	278
0	1250	211.93965891196	279
0	1251	212	278
0	1257	212.705574497704	279
0	1258	212.705574497704	280
0	1262	213.558351611432	281
0	1263	213.558351611432	282
0	1264	214	281
0	1270	215.0141082906	282
0	1271	215.0141082906	283
0	1275	215.620570884434	284
0	1276	215.620570884434	285
0	1277	216	284
0	1283	216.486977123449	285
0	1284	216.486977123449	286
0	1288	216.703792403278	287
0	1289	216.703792403278	288
0	1290	218	287
0	1296	218.068261090047	288
0	1297	218.068261090047	289
0	1301	218.539569392545	290
0	1302	218.539569392545	291
0	1306	219.062339820653	292
0	1307	219.062339820653	293
0	1311	219.338067177073	294
0	1312	219.338067177073	295
0	1316	219.794146704666	296
0	1317	219.794146704666	297
0	1318	220	296
0	1324	221.233598452899	297
0	1325	221.233598452899	298
0	1329	221.998980739442	299
0	1330	221.998980739442	300
0	1331	222	299
0	1337	222.430277977866	300
0	1338	222.430277977866	301
0	1342	223.085451590315	302
0	1343	223.085451590315	303
0	1347	223.961557085217	304
0	1348	223.961557085217	305
0	1349	224	304
0	1355	225.806392398948	305
0	1356	225.806392398948	306
0	1357	226	305
0	1363	226.675391621084	306
0	1364	226.675391621084	307
0	1365	228	306
0	1371	228.200313314221	307
0	1372	228.200313314221	308
0	1376	228.315873034804	309
0	1377	228.315873034804	310
0	1381	229.751160602719	311
0	1382	229.751160602719	312
0	1383	230	311
0	1389	231.234410937033	312
0	1390	231.234410937033	313
0	1394	231.99928545523	314
0	1395	231.99928545523	315
0	1396	232	314
0	1402	233.169849333248	315
0	1403	233.169849333248	316
0	1404	234	315
0	1410	234.634015163684	316
0	1411	234.634015163684	317
0	1415	235.572288098894	318
0	1416	235.572288098894	319
0	1417	236	318
0	1423	237.170465664754	319
0	1424	237.170465664754	320
0	1425	238	319
0	1431	238.008002965003	320
0	1432	238.008002965003	321
0	1436	239.177952437631	322
0	1437	239.177952437631	323
0	1441	239.735535073477	324
0	1442	239.735535073477	325
0	1443	240	324
0	1449	240.900446358118	325
0	1450	240.900446358118	326
0	1451	242	325
0	1457	242.359579577904	326
0	1458	242.359579577904	327
0	1462	243.174332383442	328
0	1463	243.174332383442	329
0	1464	244	328
0	1470	244.494189886569	329
0	1471	244.494189886569	330
0	1475	244.853069578089	331
0	1476	244.853069578089	332
0	1477	246	331
0	1483	246.954471054233	332
0	1484	246.954471054233	333
0	1488	247.328316555047	334
0	1489	247.328316555047	335
0	1493	247.426484588004	336
0	1494	247.426484588004	337
0	1495	248	336
0	1501	248.166387799331	337
0	1502	248.166387799331	338
0	1506	248.635748108859	339
0	1507	248.635748108859	340
0	1511	249.092270010073	341
0	1512	249.092270010073	342
0	1516	249.715120539592	343
0	1517	249.715120539592	344
0	1518	250	343
0	1524	250.182648192513	344
0	1525	250.182648192513	345
0	1529	251.01777766	346
0	1530	251.01777766	347
0	1531	252	346
0	1537	252.758474908865	347
0	1538	252.758474908865	348
0	1542	253.919582090606	349
0	1543	253.919582090606	350
0	1544	254	349
0	1550	254.674401073219	350
0	1551	254.674401073219	351
0	1555	255.25229359252	352
0	1556	255.25229359252	353
0	1557	256	352
0	1563	256.218604745032	353
0	1564	256.218604745032	354
0	1568	257.790397451697	355
0	1569	257.790397451697	356
0	1570	258	355
0	1576	259.235541407685	356
0	1577	259.235541407685	357
0	1578	260	356
0	1584	260.118269096088	357
0	1585	260.118269096088	358
0	1589	261.23232415654	359
0	1590	261.23232415654	360
0	1591	262	359
0	1597	262.407547882959	360
0	1598	262.407547882959	361
0	1602	263.4476726715	362
0	1603	263.4476726715	363
0	1607	263.489870667773	364
0	1608	263.489870667773	365
0	1609	264	364
0	1615	264.419499663046	365
0	1616	264.419499663046	366
0	1620	264.940137654621	367
0	1621	264.940137654621	368
0	1625	265.575712658148	369
0	1626	265.575712658148	370
0	1627	266	369
0	1633	266.217139816721	370
0	1634	266.217139816721	371
0	1638	267.448580473378	372
0	1639	267.448580473378	373
0	1640	268	372
0	1646	269.06294515982	373
0	1647	269.06294515982	374
0	1648	270	373
0	1654	270.626267487963	374
0	1655	270.626267487963	375
0	1659	271.063508451888	376
0	1660	271.063508451888	377
0	1661	272	376
0	1667	272.27027324889	377
0	1668	272.27027324889	378
0	1672	273.305683969125	379
0	1673	273.305683969125	380
0	1677	273.419950259619	381
0	1678	273.419950259619	382
0	1682	273.843154933745	383
0	1683	273.843154933745	384
0	1684	274	383
0	1690	275.195474464227	384
0	1691	275.195474464227	385
0	1692	276	384
0	1698	276.369968254582	385
0	1699	276.369968254582	386
0	1700	278	385
0	1706	278.841705511045	386
0	1707	278.841705511045	387
0	1708	280	386
0	1714	280.018436824442	387
0	1715	280.018436824442	388
0	1719	281.131311471996	389
0	1720	281.131311471996	390
0	1724	281.875791972545	391
0	1725	281.875791972545	392
0	1726	282	391
0	1732	283.619548073278	392
0	1733	283.619548073278	393
0	1734	284	392
0	1740	285.169970103077	393
0	1741	285.169970103077	394
0	1745	285.588911537138	395
0	1746	285.588911537138	396
0	1747	286	395
0	1753	286.468402668653	396
0	1754	286.468402668653	397
0	1758	287.360272403502	398
0	1759	287.360272403502	399
0	1760	288	398
0	1766	288.940275618019	399
0	1767	288.940275618019	400
0	1771	289.692335258745	401
0	1772	289.692335258745	402
0	1773	290	401
0	1779	291.530271709458	402
0	1780	291.530271709458	403
0	1784	291.702421848167	404
0	1785	291.702421848167	405
0	1786	292	404
0	1792	292.213402722101	405
0	1793	292.213402722101	406
0	1797	293.206072325225	407
0	1798	293.206072325225	408
0	1802	293.479432612368	409
0	1803	293.479432612368	410
0	1807	293.899805951008	411
0	1808	293.899805951008	412
0	1809	294	411
0	1815	294.940179444551	412
0	1816	294.940179444551	413
0	1820	295.265107224832	414
0	1821	295.265107224832	415
0	1825	295.853825241711	416
0	1826	295.853825241711	417
0	1827	296	416
0	1833	296.095815574316	417
0	1834	296.095815574316	418
0	1838	296.611478425102	419
0	1839	296.611478425102	420
0	1843	297.235744490004	421
0	1844	297.235744490004	422
0	1845	298	421
0	1851	298.531512280676	422
0	1852	298.531512280676	423
0	1853	300	422
0	1859	300.049583329748	423
0	1860	300.049583329748	424
0	1864	301.326569986693	425
0	1865	301.326569986693	426
0	1869	301.530642038787	427
0	1870	301.530642038787	428
0	1871	302	427
0	1877	302.273285126526	428
0	1878	302.273285126526	429
0	1882	303.289282814496	430
0	1883	303.289282814496	431
0	1884	304	430
0	1890	304.376033889	431
0	1891	304.376033889	432
0	1895	305.393170206049	433
0	1896	305.393170206049	434
0	1897	306	433
0	1903	307.355805918817	434
0	1904	307.355805918817	435
0	1908	307.923606774165	436
0	1909	307.923606774165	437
0	1910	308	436
0	1916	308.778943687578	437
0	1917	308.778943687578	438
0	1918	310	437
0	1924	310.347078400025	438
0	1925	310.347078400025	439
0	1929	311.034806292608	440
0	1930	311.034806292608	441
0	1931	312	440
0	1937	312.763216157091	441
0	1938	312.763216157091	442
0	1939	314	441
0	1945	314.338411116188	442
0	1946	314.338411116188	443
0	1950	315.141129295717	444
0	1951	315.141129295717	445
0	1952	316	444
0	1958	317.063828947453	445
0	1959	317.063828947453	446
0	1963	317.351982502098	447
0	1964	317.351982502098	448
0	1965	318	447
0	1971	318.757347657375	448
0	1972	318.757347657375	449
0	1976	319.774727295205	450
0	1977	319.774727295205	451
0	1978	320	450
0	1981	322	449
0	1987	322.03500799267	450
0	1988	322.03500799267	451
0	1992	323.197614881103	452
0	1993	323.197614881103	453
0	1994	324	452
0	2000	324.726717297614	453
0	2001	324.726717297614	454
0	2002	326	453
0	2008	326.38888311211	454
0	2009	326.38888311211	455
0	2013	327.223140437319	456
0	2014	327.223140437319	457
0	2015	328	456
0	2021	328.540178274526	457
0	2022	328.540178274526	458
0	2026	329.496223922033	459
0	2027	329.496223922033	460
0	2028	330	459
0	2034	330.818725417174	460
0	2035	330.818725417174	461
0	2039	331.401983178385	462
0	2040	331.401983178385	463
0	2041	332	462
0	2047	332.664712977716	463
0	2048	332.664712977716	464
0	2052	333.630638178508	465
0	2053	333.630638178508	466
0	2054	334	465
0	2060	334.847523393241	466
0	2061	334.847523393241	467
0	2065	335.744381047895	468
0	2066	335.744381047895	469
0	2067	336	468
0	2073	337.360648286309	469
0	2074	337.360648286309	470
0	2075	338	469
0	2081	339.05703698146	470
0	2082	339.05703698146	471
0	2083	340	470
0	2089	340.614136932417	471
0	2090	340.614136932417	472
0	2094	341.754208265946	473
0	2095	341.754208265946	474
0	2096	342	473
0	2102	342.604497922548	474
0	2103	342.604497922548	475
0	2107	343.270965731591	476
0	2108	343.270965731591	477
0	2109	344	476
0	2115	344.36288083765	477
0	2116	344.36288083765	478
0	2120	345.993063247059	479
0	2121	345.993063247059	480
0	2122	346	479
0	2128	347.142546642978	480
0	2129	347.142546642978	481
0	2133	347.968131594492	482
0	2134	347.968131594492	483
0	2135	348	482
0	2141	348.539831106658	483
0	2142	348.539831106658	484
0	2146	349.473887545899	485
0	2147	349.473887545899	486
0	2148	350	485
0	2154	350.541587894227	486
0	2155	350.541587894227	487
0	2159	351.039651856015	488
0	2160	351.039651856015	489
0	2161	352	488
0	2167	352.143125890108	489
0	2168	352.143125890108	490
0	2172	352.56107419901	491
0	2173	352.56107419901	492
0	2177	353.277648120709	493
0	2178	353.277648120709	494
0	2179	354	493
0	2185	354.508747734314	494
0	2186	354.508747734314	495
0	2187	356	494
0	2193	356.682608087764	495
0	2194	356.682608087764	496
0	2198	357.709404831604	497
0	2199	357.709404831604	498
0	2200	358	497
0	2206	358.186005100402	498
0	2207	358.186005100402	499
0	2211	359.108847347086	500
0	2212	359.108847347086	501
0	2213	360	500
0	2219	360.312553486551	501
0	2220	360.312553486551	502
0	2224	360.516669888178	503
0	2225	360.516669888178	504
0	2229	361.160210908922	505
0	2230	361.160210908922	506
0	2231	362	505
0	2237	362.749986251289	506
0	2238	362.749986251289	507
0	2242	363.957924574526	508
0	2243	363.957924574526	509
0	2244	364	508
0	2250	364.862241749899	509
0	2251	364.862241749899	510
0	2255	365.283468060831	511
0	2256	365.283468060831	512
0	2257	366	511
0	2263	366.08778112041	512
0	2264	366.08778112041	513
0	2268	367.215267103466	514
0	2269	367.215267103466	515
0	2270	368	514
0	2276	368.597782852221	515
0	2277	368.597782852221	516
0	2278	370	515
0	2284	370.4847458084	516
0	2285	370.4847458084	517
0	2289	371.322142833788	518
0	2290	371.322142833788	519
0	2294	371.692327472509	520
0	2295	371.692327472509	521
0	2296	372	520
0	2302	372.908660579642	521
0	2303	372.908660579642	522
0	2304	374	521
0	2310	374.710489444346	522
0	2311	374.710489444346	523
0	2315	375.831147227761	524
0	2316	375.831147227761	525
0	2317	376	524
0	2323	377.196618070396	525
0	2324	377.196618070396	526
0	2325	378	525
0	2331	378.335178789225	526
0	2332	378.335178789225	527
0	2336	379.993560315477	528
0	2337	379.993560315477	529
0	2338	380	528
0	2344	381.070001302176	529
0	2345	381.070001302176	530
0	2349	381.830832302552	531
0	2350	381.830832302552	532
0	2351	382	531
0	2357	382.688410467479	532
0	2358	382.688410467479	533
0	2359	384	532
0	2365	384.464022890651	533
0	2366	384.464022890651	534
0	2370	385.501222705382	535
0	2371	385.501222705382	536
0	2372	386	535
0	2378	386.256691444964	536
0	2379	386.256691444964	537
0	2383	387.241415130632	538
0	2384	387.241415130632	539
0	2385	388	538
0	2391	388.598487102086	539
0	2392	388.598487102086	540
0	2396	389.005043843869	541
0	2397	389.005043843869	542
0	2398	390	541
0	2404	390.280434763982	542
0	2405	390.280434763982	543
0	2409	391.229509463759	544
0	2410	391.229509463759	545
0	2411	392	544
0	2417	392.47783885544	545
0	2418	392.47783885544	546
0	2422	393.076753639763	547
0	2423	393.076753639763	548
0	2427	393.404529558448	549
0	2428	393.404529558448	550
0	2432	393.541870333125	551
0	2433	393.541870333125	552
0	2434	394	551
0	2440	394.805422709325	552
0	2441	394.805422709325	553
0	2445	395.944620721595	554
0	2446	395.944620721595	555
0	2447	396	554
0	2453	396.861924713654	555
0	2454	396.861924713654	556
0	2455	398	555
0	2461	399.140917828474	556
0	2462	399.140917828474	557
0	2463	400	556
0	2469	400.463173573484	557
0	2470	400.463173573484	558
0	2471	402	557
0	2477	402.572615319435	558
0	2478	402.572615319435	559
0	2482	403.359327344275	560
0	2483	403.359327344275	561
0	2484	404	560
0	2490	404.599074034152	561
0	2491	404.599074034152	562
0	2495	405.223224593009	563
0	2496	405.223224593009	564
0	2497	406	563
0	2503	406.00197751681	564
0	2504	406.00197751681	565
0	2508	407.107526562803	566
0	2509	407.107526562803	567
0	2513	407.727312717215	568
0	2514	407.727312717215	569
0	2515	408	568
0	2521	408.952970126989	569
0	2522	408.952970126989	570
0	2526	409.611930669056	571
0	2527	409.611930669056	572
0	2528	410	571
0	2534	411.383238577561	572
0	2535	411.383238577561	573
0	2536	412	572
0	2542	412.380765916332	573
0	2543	412.380765916332	574
0	2547	413.034560059261	575
0	2548	413.034560059261	576
0	2549	414	575
0	2555	414.270130359783	576
0	2556	414.270130359783	577
0	2560	414.970056359102	578
0	2561	414.970056359102	579
0	2565	415.230639600894	580
0	2566	415.230639600894	581
0	2570	415.996005772279	582
0	2571	415.996005772279	583
0	2572	416	582
0	2578	417.187002118729	583
0	2579	417.187002118729	584
0	2580	418	583
0	2586	418.812101803801	584
0	2587	418.812101803801	585
0	2588	420	584
0	2594	420.153076125101	585
0	2595	420.153076125101	586
0	2599	421.087367254518	587
0	2600	421.087367254518	588
0	2601	422	587
0	2607	422.104274985714	588
0	2608	422.104274985714	589
0	2612	422.679163964569	590
0	2613	422.679163964569	591
0	2617	423.559885019002	592
0	2618	423.559885019002	593
0	2619	424	592
0	2625	424.656613699387	593
0	2626	424.656613699387	594
0	2630	425.594333286365	595
0	2631	425.594333286365	596
0	2632	426	595
0	2638	426.544299184928	596
0	2639	426.544299184928	597
0	2643	426.707097890968	598
0	2644	426.707097890968	599
0	2648	427.311386108871	600
0	2649	427.311386108871	601
0	2650	428	600
0	2656	428.323978149981	601
0	2657	428.323978149981	602
0	2661	428.823943010742	603
0	2662	428.823943010742	604
0	2666	429.750773717939	605
0	2667	429.750773717939	606
0	2668	430	605
0	2674	431.272623160118	606
0	2675	431.272623160118	607
0	2676	432	606
0	2682	432.160970782664	607
0	2683	432.160970782664	608
0	2687	432.894583556596	609
0	2688	432.894583556596	610
0	2692	433.404677702015	611
0	2693	433.404677702015	612
0	2697	433.665065653989	613
0	2698	433.665065653989	614
0	2699	434	613
0	2705	434.36183676211	614
0	2706	434.36183676211	615
0	2710	434.4271177968	616
0	2711	434.4271177968	617
0	2715	435.424986983613	618
0	2716	435.424986983613	619
0	2717	436	618
0	2723	436.156079437912	619
0	2724	436.156079437912	620
0	2728	436.763923218642	621
0	2729	436.763923218642	622
0	2730	438	621
0	2736	438.91817193633	622
0	2737	438.91817193633	623
0	2741	439.160521858376	624
0	2742	439.160521858376	625
0	2743	440	624
0	2749	440.320868303724	625
0	2750	440.320868303724	626
0	2754	440.813517197316	627
0	2755	440.813517197316	628
0	2759	441.715602272773	629
0	2760	441.715602272773	630
0	2761	442	629
0	2767	442.592261690004	630
0	2768	442.592261690004	631
0	2772	443.266808352298	632
0	2773	443.266808352298	633
0	2774	444	632
0	2780	444.4496827907	633
0	2781	444.4496827907	634
0	2785	445.30638743231	635
0	2786	445.30638743231	636
0	2787	446	635
0	2793	446.178225609907	636
0	2794	446.178225609907	637
0	2798	447.961469124438	638
0	2799	447.961469124438	639
0	2800	448	638
0	2806	448.425757440236	639
0	2807	448.425757440236	640
0	2811	449.367976991166	641
0	2812	449.367976991166	642
0	2813	450	641
0	2819	450.665619672485	642
0	2820	450.665619672485	643
0	2824	451.119162518659	644
0	2825	451.119162518659	645
0	2826	452	644
0	2832	452.242390564801	645
0	2833	452.242390564801	646
0	2837	453.548886216317	647
0	2838	453.548886216317	648
0	2842	453.783933865281	649
0	2843	453.783933865281	650
0	2844	454	649
0	2850	454.593469089504	650
0	2851	454.593469089504	651
0	2855	455.021429874279	652
0	2856	455.021429874279	653
0	2860	455.50377892251	654
0	2861	455.50377892251	655
0	2862	456	654
0	2868	456.989915907995	655
0	2869	456.989915907995	656
0	2870	458	655
0	2876	458.471485202493	656
0	2877	458.471485202493	657
0	2881	459.735481820634	658
0	2882	459.735481820634	659
0	2883	460	658
0	2889	460.635099846608	659
0	2890	460.635099846608	660
0	2894	461.512088177638	661
0	2895	461.512088177638	662
0	2896	462	661
0	2902	462.245841030569	662
0	2903	462.245841030569	663
0	2907	463.038010012168	664
0	2908	463.038010012168	665
0	2909	464	664
0	2915	464.290567481296	665
0	2916	464.290567481296	666
0	2920	464.996772247028	667
0	2921	464.996772247028	668
0	2922	466	667
0	2928	467.041437180061	668
0	2929	467.041437180061	669
0	2930	468	668
0	2936	468.408377436413	669
0	2937	468.408377436413	670
0	2941	468.464704768385	671
0	2942	468.464704768385	672
0	2946	469.547700380353	673
0	2947	469.547700380353	674
0	2948	470	673
0	2954	470.462939853489	674
0	2955	470.462939853489	675
0	2959	471.905294950757	676
0	2960	471.905294950757	677
0	2961	472	676
0	2967	473.615390132333	677
0	2968	473.615390132333	678
0	2969	474	677
0	2975	474.950361908814	678
0	2976	474.950361908814	679
0	2980	475.883054916347	680
0	2981	475.883054916347	681
0	2982	476	680
0	2985	478	679
0	2991	478.537273578753	680
0	2992	478.537273578753	681
0	2993	480	680
0	2999	480.056402345925	681
0	3000	480.056402345925	682
0	3004	480.095861215412	683
0	3005	480.095861215412	684
0	3009	481.949896133404	685
0	3010	481.949896133404	686
0	3011	482	685
0	3017	482.597470334314	686
0	3018	482.597470334314	687
0	3022	483.895855758222	688
0	3023	483.895855758222	689
0	3024	484	688
0	3030	484.085990731168	689
0	3031	484.085990731168	690
0	3035	485.154823707791	691
0	3036	485.154823707791	692
0	3037	486	691