version 3
run k_MM1_lbqf-19-20221127-16:03:35-25264
attr configname k_MM1_lbqf
attr datetime 20221127-16:03:35
attr datetimef 20221127-160335
attr experiment k_MM1_lbqf
attr inifile omnetpp.ini
attr iterationvars "$time=2.0, $num=1, $0=33434, $1=56673, $2=23567"
attr iterationvarsd time=2.0/num=1/33434/56673/23567
attr iterationvarsf time=2.0,num=1,33434,56673,23567-
attr measurement "$time=2.0, $num=1, $0=33434, $1=56673, $2=23567"
attr network lbqfkMM1
attr processid 25264
attr repetition 3
attr replication #3
attr resultdir results
attr runnumber 19
attr seedset 19
itervar num 1
itervar time 2.0
config description "MM1 module k-times lbqf"
config network lbqfkMM1
config **.interArrivalTime "truncnormal(uniform(0.5s, 1.5s), uniform(0.25s, 0.75s))"
config **.serviceTime 2.0s
config **.c 1
config **.capacity 10000
config record-eventlog false
config **.scalar-recording true
config **.vector-recording true
config repeat 4
config seed-1-mt 33434
config seed-2-mt 56673
config seed-3-mt 23567
config output-vector-file k_MM1_lbqf-1-2.0-results/3.vec
config output-scalar-file k_MM1_lbqf-1-2.0-results/3.sca

vector 0 lbqfkMM1.mm1[0] queueLength:vector ETV
attr interpolationmode none
attr recordingmode vector
attr title "queue length"
vector 1 lbqfkMM1.mm1[0] util:vector ETV
attr interpolationmode none
attr recordingmode vector
attr title resources
0	5	10	1
0	9	10.521764343343	2
0	10	10.521764343343	3
0	14	11.006722483441	4
0	15	11.006722483441	5
0	19	11.887951662599	6
0	20	11.887951662599	7
0	21	12	6
0	27	13.913068319064	7
0	28	13.913068319064	8
0	29	14	7
0	35	15.272949843808	8
0	36	15.272949843808	9
0	37	16	8
0	43	16.94320842916	9
0	44	16.94320842916	10
0	48	17.652337180824	11
0	49	17.652337180824	12
0	50	18	11
0	56	18.863583024209	12
0	57	18.863583024209	13
0	58	20	12
0	64	20.096343647507	13
0	65	20.096343647507	14
0	69	20.975990174838	15
0	70	20.975990174838	16
0	74	21.718770477744	17
0	75	21.718770477744	18
0	76	22	17
0	82	23.343270163188	18
0	83	23.343270163188	19
0	84	24	18
0	90	24.197393913998	19
0	91	24.197393913998	20
0	95	25.003230557311	21
0	96	25.003230557311	22
0	97	26	21
0	103	26.29639730474	22
0	104	26.29639730474	23
0	105	28	22
0	111	28.159481810171	23
0	112	28.159481810171	24
0	116	28.751901162561	25
0	117	28.751901162561	26
0	121	29.140470004067	27
0	122	29.140470004067	28
0	126	29.913419921964	29
0	127	29.913419921964	30
0	128	30	29
0	134	31.10613554388	30
0	135	31.10613554388	31
0	139	31.734981159423	32
0	140	31.734981159423	33
0	141	32	32
0	147	33.649426502074	33
0	148	33.649426502074	34
0	149	34	33
0	155	34.350833518386	34
0	156	34.350833518386	35
0	160	35.242952539729	36
0	161	35.242952539729	37
0	162	36	36
0	168	36.949639210968	37
0	169	36.949639210968	38
0	170	38	37
0	176	38.356570743669	38
0	177	38.356570743669	39
0	178	40	38
0	184	40.595917577899	39
0	185	40.595917577899	40
0	186	42	39
0	192	42.735195371477	40
0	193	42.735195371477	41
0	197	43.641643737635	42
0	198	43.641643737635	43
0	199	44	42
0	205	44.540054669989	43
0	206	44.540054669989	44
0	210	45.434662213937	45
0	211	45.434662213937	46
0	215	45.912339639098	47
0	216	45.912339639098	48
0	217	46	47
0	223	47.516521570176	48
0	224	47.516521570176	49
0	225	48	48
0	231	48.247814567373	49
0	232	48.247814567373	50
0	236	49.148172048013	51
0	237	49.148172048013	52
0	238	50	51
0	244	50.191600883055	52
0	245	50.191600883055	53
0	249	50.457094548003	54
0	250	50.457094548003	55
0	254	51.998684979696	56
0	255	51.998684979696	57
0	256	52	56
0	262	53.32502451568	57
0	263	53.32502451568	58
0	264	54	57
0	270	54.15742496681	58
0	271	54.15742496681	59
0	275	54.583623736749	60
0	276	54.583623736749	61
0	280	54.969399379125	62
0	281	54.969399379125	63
0	285	55.596780240948	64
0	286	55.596780240948	65
0	287	56	64
0	293	57.311092290812	65
0	294	57.311092290812	66
0	298	57.682132644265	67
0	299	57.682132644265	68
0	300	58	67
0	306	58.667199575009	68
0	307	58.667199575009	69
0	311	59.339079014041	70
0	312	59.339079014041	71
0	316	59.773503016966	72
0	317	59.773503016966	73
0	318	60	72
0	324	61.361281649941	73
0	325	61.361281649941	74
0	326	62	73
0	332	63.534790671229	74
0	333	63.534790671229	75
0	334	64	74
0	340	64.945275973034	75
0	341	64.945275973034	76
0	342	66	75
0	348	66.088856595034	76
0	349	66.088856595034	77
0	353	66.871524360695	78
0	354	66.871524360695	79
0	358	67.834531876841	80
0	359	67.834531876841	81
0	360	68	80
0	366	69.273758715232	81
0	367	69.273758715232	82
0	368	70	81
0	374	70.277115971757	82
0	375	70.277115971757	83
0	379	70.979511940731	84
0	380	70.979511940731	85
0	381	72	84
0	387	72.421029149531	85
0	388	72.421029149531	86
0	392	73.112828261709	87
0	393	73.112828261709	88
0	394	74	87
0	400	74.219274313448	88
0	401	74.219274313448	89
0	405	75.385910849196	90
0	406	75.385910849196	91
0	407	76	90
0	413	76.331378621352	91
0	414	76.331378621352	92
0	418	77.051885105512	93
0	419	77.051885105512	94
0	420	78	93
0	426	78.205480196084	94
0	427	78.205480196084	95
0	431	79.209591539345	96
0	432	79.209591539345	97
0	433	80	96
0	439	80.02973657474	97
0	440	80.02973657474	98
0	444	80.465828830483	99
0	445	80.465828830483	100
0	449	81.564681660046	101
0	450	81.564681660046	102
0	451	82	101
0	457	83.137620865472	102
0	458	83.137620865472	103
0	459	84	102
0	465	84.823827470285	103
0	466	84.823827470285	104
0	470	85.684021662349	105
0	471	85.684021662349	106
0	472	86	105
0	478	86.097545298218	106
0	479	86.097545298218	107
0	483	87.480262865991	108
0	484	87.480262865991	109
0	485	88	108
0	491	88.709609211775	109
0	492	88.709609211775	110
0	496	89.125942990525	111
0	497	89.125942990525	112
0	498	90	111
0	504	90.204828195958	112
0	505	90.204828195958	113
0	509	91.350853056826	114
0	510	91.350853056826	115
0	511	92	114
0	517	92.168947212205	115
0	518	92.168947212205	116
0	522	92.419181189556	117
0	523	92.419181189556	118
0	527	93.330522149395	119
0	528	93.330522149395	120
0	529	94	119
0	535	94.938190928429	120
0	536	94.938190928429	121
0	540	95.70912322329	122
0	541	95.70912322329	123
0	542	96	122
0	548	96.833357559058	123
0	549	96.833357559058	124
0	550	98	123
0	556	98.929458236827	124
0	557	98.929458236827	125
0	558	100	124
0	564	101.022247217946	125
0	565	101.022247217946	126
0	569	101.685300447934	127
0	570	101.685300447934	128
0	571	102	127
0	577	102.229639134619	128
0	578	102.229639134619	129
0	579	104	128
0	585	104.13073021686	129
0	586	104.13073021686	130
0	590	105.406696501878	131
0	591	105.406696501878	132
0	595	105.49741932406	133
0	596	105.49741932406	134
0	597	106	133
0	603	107.128758272532	134
0	604	107.128758272532	135
0	605	108	134
0	611	108.894144655802	135
0	612	108.894144655802	136
0	616	109.454220350934	137
0	617	109.454220350934	138
0	618	110	137
0	624	110.372976835067	138
0	625	110.372976835067	139
0	629	111.057022951658	140
0	630	111.057022951658	141
0	634	111.558092920714	142
0	635	111.558092920714	143
0	636	112	142
0	642	112.213897268091	143
0	643	112.213897268091	144
0	647	113.510965753293	145
0	648	113.510965753293	146
0	649	114	145
0	655	114.46996473086	146
0	656	114.46996473086	147
0	660	115.414866137542	148
0	661	115.414866137542	149
0	665	115.427662794036	150
0	666	115.427662794036	151
0	667	116	150
0	673	116.65625827467	151
0	674	116.65625827467	152
0	675	118	151
0	681	118.334716368753	152
0	682	118.334716368753	153
0	686	119.745775038512	154
0	687	119.745775038512	155
0	688	120	154
0	694	120.596870210579	155
0	695	120.596870210579	156
0	699	120.663946858714	157
0	700	120.663946858714	158
0	704	121.206947975378	159
0	705	121.206947975378	160
0	706	122	159
0	712	122.070275242503	160
0	713	122.070275242503	161
0	717	122.777439037881	162
0	718	122.777439037881	163
0	722	123.45074668413	164
0	723	123.45074668413	165
0	724	124	164
0	730	124.622009969388	165
0	731	124.622009969388	166
0	735	125.987707340421	167
0	736	125.987707340421	168
0	737	126	167
0	743	126.786261555455	168
0	744	126.786261555455	169
0	748	127.697808975474	170
0	749	127.697808975474	171
0	750	128	170
0	756	128.850084223348	171
0	757	128.850084223348	172
0	758	130	171
0	764	130.633125831458	172
0	765	130.633125831458	173
0	769	131.347331412329	174
0	770	131.347331412329	175
0	771	132	174
0	777	132.506969136551	175
0	778	132.506969136551	176
0	782	133.361561804498	177
0	783	133.361561804498	178
0	784	134	177
0	790	134.630020332338	178
0	791	134.630020332338	179
0	795	135.044236574552	180
0	796	135.044236574552	181
0	797	136	180
0	803	136.734915947343	181
0	804	136.734915947343	182
0	805	138	181
0	811	138.505323335977	182
0	812	138.505323335977	183
0	816	139.286536218391	184
0	817	139.286536218391	185
0	818	140	184
0	824	140.398878996713	185
0	825	140.398878996713	186
0	829	141.106761418334	187
0	830	141.106761418334	188
0	831	142	187
0	837	142.867947051866	188
0	838	142.867947051866	189
0	839	144	188
0	845	144.645823785009	189
0	846	144.645823785009	190
0	850	145.303632437238	191
0	851	145.303632437238	192
0	852	146	191
0	858	146.145957180742	192
0	859	146.145957180742	193
0	863	147.38481679184	194
0	864	147.38481679184	195
0	865	148	194
0	871	148.292659308649	195
0	872	148.292659308649	196
0	876	149.753022222042	197
0	877	149.753022222042	198
0	878	150	197
0	884	150.485510390315	198
0	885	150.485510390315	199
0	889	151.76786115753	200
0	890	151.76786115753	201
0	894	151.785836354252	202
0	895	151.785836354252	203
0	896	152	202
0	902	153.067027576008	203
0	903	153.067027576008	204
0	904	154	203
0	910	154.146229061443	204
0	911	154.146229061443	205
0	915	154.893226062812	206
0	916	154.893226062812	207
0	917	156	206
0	923	156.922979829143	207
0	924	156.922979829143	208
0	928	157.709765580549	209
0	929	157.709765580549	210
0	930	158	209
0	936	158.961694166195	210
0	937	158.961694166195	211
0	941	159.476113465396	212
0	942	159.476113465396	213
0	943	160	212
0	949	161.56540085475	213
0	950	161.56540085475	214
0	951	162	213
0	957	162.560177277735	214
0	958	162.560177277735	215
0	962	163.921319441819	216
0	963	163.921319441819	217
0	964	164	216
0	970	165.486311008767	217
0	971	165.486311008767	218
0	975	165.504709864546	219
0	976	165.504709864546	220
0	977	166	219
0	983	167.04506392356	220
0	984	167.04506392356	221
0	988	167.598229756168	222
0	989	167.598229756168	223
0	990	168	222
0	996	168.884536954502	223
0	997	168.884536954502	224
0	998	170	223
0	1004	170.071032786585	224
0	1005	170.071032786585	225
0	1009	170.657269914286	226
0	1010	170.657269914286	227
0	1014	171.38671192804	228
0	1015	171.38671192804	229
0	1016	172	228
0	1022	172.161932096124	229
0	1023	172.161932096124	230
0	1027	173.285340421476	231
0	1028	173.285340421476	232
0	1032	173.981311339703	233
0	1033	173.981311339703	234
0	1034	174	233
0	1040	175.143390173058	234
0	1041	175.143390173058	235
0	1045	175.702846243108	236
0	1046	175.702846243108	237
0	1047	176	236
0	1053	177.066308091865	237
0	1054	177.066308091865	238
0	1055	178	237
0	1061	178.500370741759	238
0	1062	178.500370741759	239
0	1063	180	238
0	1069	180.458228975675	239
0	1070	180.458228975675	240
0	1071	182	239
0	1077	182.063857929494	240
0	1078	182.063857929494	241
0	1082	183.754765359507	242
0	1083	183.754765359507	243
0	1084	184	242
0	1090	184.902508325662	243
0	1091	184.902508325662	244
0	1095	185.567922777776	245
0	1096	185.567922777776	246
0	1097	186	245
0	1103	186.506070795763	246
0	1104	186.506070795763	247
0	1108	187.479294952593	248
0	1109	187.479294952593	249
0	1113	187.605345322638	250
0	1114	187.605345322638	251
0	1115	188	250
0	1121	188.010951084637	251
0	1122	188.010951084637	252
0	1126	189.869553033856	253
0	1127	189.869553033856	254
0	1131	189.915583200297	255
0	1132	189.915583200297	256
0	1133	190	255
0	1136	192	254
0	1142	192.089328599525	255
0	1143	192.089328599525	256
0	1147	193.442633996681	257
0	1148	193.442633996681	258
0	1152	193.990600785863	259
0	1153	193.990600785863	260
0	1154	194	259
0	1160	194.841579912622	260
0	1161	194.841579912622	261
0	1165	195.820849271093	262
0	1166	195.820849271093	263
0	1167	196	262
0	1173	196.312664433158	263
0	1174	196.312664433158	264
0	1178	196.416580180586	265
0	1179	196.416580180586	266
0	1180	198	265
0	1186	198.139377560596	266
0	1187	198.139377560596	267
0	1191	198.518695831601	268
0	1192	198.518695831601	269
0	1196	199.20242611543	270
0	1197	199.20242611543	271
0	1201	199.87747781525	272
0	1202	199.87747781525	273
0	1203	200	272
0	1209	201.218819864682	273
0	1210	201.218819864682	274
0	1211	202	273
0	1217	203.094176878688	274
0	1218	203.094176878688	275
0	1219	204	274
0	1225	204.774279590884	275
0	1226	204.774279590884	276
0	1227	206	275
0	1233	206.39442002967	276
0	1234	206.39442002967	277
0	1238	207.234114211827	278
0	1239	207.234114211827	279
0	1243	207.44269016645	280
0	1244	207.44269016645	281
0	1245	208	280
0	1251	209.088006958452	281
0	1252	209.088006958452	282
0	1253	210	281
0	1259	210.054471989464	282
0	1260	210.054471989464	283
0	1264	211.095991742044	284
0	1265	211.095991742044	285
0	1266	212	284
0	1272	212.280603606689	285
0	1273	212.280603606689	286
0	1274	214	285
0	1280	214.475527976005	286
0	1281	214.475527976005	287
0	1285	215.498137657232	288
0	1286	215.498137657232	289
0	1287	216	288
0	1293	216.630384870209	289
0	1294	216.630384870209	290
0	1298	217.556511252059	291
0	1299	217.556511252059	292
0	1300	218	291
0	1306	218.932726412333	292
0	1307	218.932726412333	293
0	1311	219.422728315191	294
0	1312	219.422728315191	295
0	1313	220	294
0	1319	221.290496398396	295
0	1320	221.290496398396	296
0	1321	222	295
0	1327	222.842165490387	296
0	1328	222.842165490387	297
0	1329	224	296
0	1335	224.631795312609	297
0	1336	224.631795312609	298
0	1340	225.538702636607	299
0	1341	225.538702636607	300
0	1345	225.791417223604	301
0	1346	225.791417223604	302
0	1347	226	301
0	1353	227.083802146026	302
0	1354	227.083802146026	303
0	1355	228	302
0	1361	228.291335160207	303
0	1362	228.291335160207	304
0	1366	229.1007542916	305
0	1367	229.1007542916	306
0	1371	229.219019623181	307
0	1372	229.219019623181	308
0	1373	230	307
0	1379	230.675479089619	308
0	1380	230.675479089619	309
0	1381	232	308
0	1387	232.295024895592	309
0	1388	232.295024895592	310
0	1392	233.541200965639	311
0	1393	233.541200965639	312
0	1394	234	311
0	1400	234.299447133071	312
0	1401	234.299447133071	313
0	1405	234.745873849696	314
0	1406	234.745873849696	315
0	1410	234.823423174154	316
0	1411	234.823423174154	317
0	1415	235.317122200243	318
0	1416	235.317122200243	319
0	1420	235.779900955582	320
0	1421	235.779900955582	321
0	1422	236	320
0	1428	237.28578060943	321
0	1429	237.28578060943	322
0	1430	238	321
0	1436	238.076847773709	322
0	1437	238.076847773709	323
0	1441	239.232818570342	324
0	1442	239.232818570342	325
0	1443	240	324
0	1449	240.272372534689	325
0	1450	240.272372534689	326
0	1454	241.413399611498	327
0	1455	241.413399611498	328
0	1456	242	327
0	1462	242.904845646727	328
0	1463	242.904845646727	329
0	1467	243.583124303332	330
0	1468	243.583124303332	331
0	1469	244	330
0	1475	244.548411553279	331
0	1476	244.548411553279	332
0	1477	246	331
0	1483	246.822266410207	332
0	1484	246.822266410207	333
0	1488	247.742149075989	334
0	1489	247.742149075989	335
0	1490	248	334
0	1496	249.164520213408	335
0	1497	249.164520213408	336
0	1498	250	335
0	1504	250.249527040606	336
0	1505	250.249527040606	337
0	1509	251.364361921718	338
0	1510	251.364361921718	339
0	1511	252	338
0	1517	252.147224528912	339
0	1518	252.147224528912	340
0	1522	252.700955123488	341
0	1523	252.700955123488	342
0	1527	253.953817056966	343
0	1528	253.953817056966	344
0	1529	254	343
0	1535	254.514996725324	344
0	1536	254.514996725324	345
0	1540	254.66410839435	346
0	1541	254.66410839435	347
0	1545	255.600179138891	348
0	1546	255.600179138891	349
0	1547	256	348
0	1553	256.283637670742	349
0	1554	256.283637670742	350
0	1558	257.444439795161	351
0	1559	257.444439795161	352
0	1560	258	351
0	1566	258.600857555684	352
0	1567	258.600857555684	353
0	1571	259.915461018093	354
0	1572	259.915461018093	355
0	1573	260	354
0	1579	260.482100721119	355
0	1580	260.482100721119	356
0	1581	262	355
0	1587	262.16072903824	356
0	1588	262.16072903824	357
0	1592	263.269720712206	358
0	1593	263.269720712206	359
0	1594	264	358
0	1600	264.146612947967	359
0	1601	264.146612947967	360
0	1605	264.528896985543	361
0	1606	264.528896985543	362
0	1610	265.480004099221	363
0	1611	265.480004099221	364
0	1615	265.962574646127	365
0	1616	265.962574646127	366
0	1617	266	365
0	1623	266.568642511094	366
0	1624	266.568642511094	367
0	1628	267.377706981327	368
0	1629	267.377706981327	369
0	1630	268	368
0	1636	268.879154426144	369
0	1637	268.879154426144	370
0	1638	270	369
0	1644	270.902082904618	370
0	1645	270.902082904618	371
0	1649	271.706469129375	372
0	1650	271.706469129375	373
0	1651	272	372
0	1657	273.318570406007	373
0	1658	273.318570406007	374
0	1659	274	373
0	1665	274.02351167511	374
0	1666	274.02351167511	375
0	1670	274.051779886262	376
0	1671	274.051779886262	377
0	1675	274.980509731596	378
0	1676	274.980509731596	379
0	1677	276	378
0	1683	276.168049384844	379
0	1684	276.168049384844	380
0	1688	277.683476482357	381
0	1689	277.683476482357	382
0	1693	277.869405148427	383
0	1694	277.869405148427	384
0	1695	278	383
0	1701	278.521462004731	384
0	1702	278.521462004731	385
0	1706	279.763058556737	386
0	1707	279.763058556737	387
0	1708	280	386
0	1714	281.565022115961	387
0	1715	281.565022115961	388
0	1716	282	387
0	1722	282.084869715143	388
0	1723	282.084869715143	389
0	1727	283.727892661366	390
0	1728	283.727892661366	391
0	1729	284	390
0	1735	284.36731625496	391
0	1736	284.36731625496	392
0	1740	285.798144761839	393
0	1741	285.798144761839	394
0	1742	286	393
0	1748	287.17187316574	394
0	1749	287.17187316574	395
0	1750	288	394
0	1756	288.656230889275	395
0	1757	288.656230889275	396
0	1761	289.426594825768	397
0	1762	289.426594825768	398
0	1763	290	397
0	1769	291.171164151465	398
0	1770	291.171164151465	399
0	1774	291.903405691545	400
0	1775	291.903405691545	401
0	1776	292	400
0	1782	293.568670646578	401
0	1783	293.568670646578	402
0	1787	293.976033381626	403
0	1788	293.976033381626	404
0	1789	294	403
0	1792	296	402
0	1798	296.21792251501	403
0	1799	296.21792251501	404
0	1803	297.271073292854	405
0	1804	297.271073292854	406
0	1805	298	405
0	1811	298.296342585075	406
0	1812	298.296342585075	407
0	1813	300	406
0	1819	300.108284195208	407
0	1820	300.108284195208	408
0	1824	301.808852920277	409
0	1825	301.808852920277	410
0	1826	302	409
0	1832	303.19454454019	410
0	1833	303.19454454019	411
0	1834	304	410
0	1840	304.530721094085	411
0	1841	304.530721094085	412
0	1845	305.85208404108	413
0	1846	305.85208404108	414
0	1847	306	413
0	1853	306.306456460064	414
0	1854	306.306456460064	415
0	1858	307.040792135086	416
0	1859	307.040792135086	417
0	1863	307.497624306113	418
0	1864	307.497624306113	419
0	1865	308	418
0	1871	308.212130813057	419
0	1872	308.212130813057	420
0	1876	309.785682744031	421
0	1877	309.785682744031	422
0	1878	310	421
0	1884	311.418308026075	422
0	1885	311.418308026075	423
0	1886	312	422
0	1892	312.399251484837	423
0	1893	312.399251484837	424
0	1897	313.103100815623	425
0	1898	313.103100815623	426
0	1902	313.898294387146	427
0	1903	313.898294387146	428
0	1904	314	427
0	1910	314.964522766401	428
0	1911	314.964522766401	429
0	1915	315.257919850825	430
0	1916	315.257919850825	431
0	1920	315.517436915717	432
0	1921	315.517436915717	433
0	1922	316	432
0	1928	316.389937129704	433
0	1929	316.389937129704	434
0	1933	317.966157982926	435
0	1934	317.966157982926	436
0	1935	318	435
0	1941	318.941817394097	436
0	1942	318.941817394097	437
0	1946	319.969529554526	438
0	1947	319.969529554526	439
0	1948	320	438
0	1954	321.002865364021	439
0	1955	321.002865364021	440
0	1959	321.674231082627	441
0	1960	321.674231082627	442
0	1961	322	441
0	1967	322.308952827068	442
0	1968	322.308952827068	443
0	1972	323.057164678107	444
0	1973	323.057164678107	445
0	1977	323.582007067141	446
0	1978	323.582007067141	447
0	1979	324	446
0	1985	325.015500854797	447
0	1986	325.015500854797	448
0	1987	326	447
0	1993	326.200000389579	448
0	1994	326.200000389579	449
0	1998	326.643740098045	450
0	1999	326.643740098045	451
0	2003	327.872075210069	452
0	2004	327.872075210069	453
0	2005	328	452
0	2011	328.739238951047	453
0	2012	328.739238951047	454
0	2016	329.934298702943	455
0	2017	329.934298702943	456
0	2018	330	455
0	2024	331.527276528671	456
0	2025	331.527276528671	457
0	2026	332	456
0	2032	332.502161287929	457
0	2033	332.502161287929	458
0	2037	333.157396148489	459
0	2038	333.157396148489	460
0	2039	334	459
0	2045	334.586638151432	460
0	2046	334.586638151432	461
0	2047	336	460
0	2053	336.101790186181	461
0	2054	336.101790186181	462
0	2055	338	461
0	2061	338.045803002568	462
0	2062	338.045803002568	463
0	2066	338.531108841771	464
0	2067	338.531108841771	465
0	2071	339.519319136962	466
0	2072	339.519319136962	467
0	2073	340	466
0	2079	341.394023512694	467
0	2080	341.394023512694	468
0	2081	342	467
0	2087	342.050075115174	468
0	2088	342.050075115174	469
0	2092	342.499546900858	470
0	2093	342.499546900858	471
0	2097	343.738682133925	472
0	2098	343.738682133925	473
0	2099	344	472
0	2105	345.019720764412	473
0	2106	345.019720764412	474
0	2107	346	473
0	2113	346.765976384332	474
0	2114	346.765976384332	475
0	2115	348	474
0	2121	348.180556970363	475
0	2122	348.180556970363	476
0	2126	349.500596912671	477
0	2127	349.500596912671	478
0	2128	350	477
0	2134	350.749399318503	478
0	2135	350.749399318503	479
0	2136	352	478
0	2142	353.407080336121	479
0	2143	353.407080336121	480
0	2144	354	479
0	2150	354.052971623401	480
0	2151	354.052971623401	481
0	2155	355.614916230477	482
0	2156	355.614916230477	483
0	2160	355.670796301243	484
0	2161	355.670796301243	485
0	2162	356	484
0	2168	356.257266492626	485
0	2169	356.257266492626	486
0	2173	356.661944913465	487
0	2174	356.661944913465	488
0	2178	357.530815498654	489
0	2179	357.530815498654	490
0	2180	358	489
0	2186	358.367728395136	490
0	2187	358.367728395136	491
0	2191	358.665159775219	492
0	2192	358.665159775219	493
0	2193	360	492
0	2199	360.077404268533	493
0	2200	360.077404268533	494
0	2204	361.804942576551	495
0	2205	361.804942576551	496
0	2206	362	495
0	2212	363.186680280354	496
0	2213	363.186680280354	497
0	2214	364	496
0	2220	364.681725823544	497
0	2221	364.681725823544	498
0	2225	365.795255920772	499
0	2226	365.795255920772	500
0	2227	366	499
0	2233	366.087357506661	500
0	2234	366.087357506661	501
0	2238	367.05219984111	502
0	2239	367.05219984111	503
0	2240	368	502
0	2246	368.192002995336	503
0	2247	368.192002995336	504
0	2251	369.586412537841	505
0	2252	369.586412537841	506
0	2253	370	505
0	2259	370.383946888277	506
0	2260	370.383946888277	507
0	2264	370.718373404673	508
0	2265	370.718373404673	509
0	2269	371.952354729682	510
0	2270	371.952354729682	511
0	2271	372	510
0	2277	372.538923496271	511
0	2278	372.538923496271	512
0	2282	373.945436789496	513
0	2283	373.945436789496	514
0	2284	374	513
0	2290	375.434924124477	514
0	2291	375.434924124477	515
0	2292	376	514
0	2298	376.468585055651	515
0	2299	376.468585055651	516
0	2303	377.989990484424	517
0	2304	377.989990484424	518
0	2305	378	517
0	2311	379.663412758427	518
0	2312	379.663412758427	519
0	2313	380	518
0	2319	380.406697122167	519
0	2320	380.406697122167	520
0	2321	382	519
0	2327	382.188391535843	520
0	2328	382.188391535843	521
0	2329	384	520
0	2335	384.304287266501	521
0	2336	384.304287266501	522
0	2340	385.401940477276	523
0	2341	385.401940477276	524
0	2342	386	523
0	2348	386.324132734373	524
0	2349	386.324132734373	525
0	2353	386.86716074693	526
0	2354	386.86716074693	527
0	2358	387.340371494867	528
0	2359	387.340371494867	529
0	2363	387.653824844275	530
0	2364	387.653824844275	531
0	2365	388	530
0	2371	388.89676385773	531
0	2372	388.89676385773	532
0	2373	390	531
0	2379	390.371930182294	532
0	2380	390.371930182294	533
0	2384	391.224483420147	534
0	2385	391.224483420147	535
0	2386	392	534
0	2392	392.652171329157	535
0	2393	392.652171329157	536
0	2397	393.741341543862	537
0	2398	393.741341543862	538
0	2399	394	537
0	2405	394.025620210842	538
0	2406	394.025620210842	539
0	2410	394.881846025823	540
0	2411	394.881846025823	541
0	2415	395.266171001284	542
0	2416	395.266171001284	543
0	2420	395.827430525291	544
0	2421	395.827430525291	545
0	2422	396	544
0	2428	396.192365678442	545
0	2429	396.192365678442	546
0	2433	396.695237431571	547
0	2434	396.695237431571	548
0	2435	398	547
0	2441	398.70336022794	548
0	2442	398.70336022794	549
0	2443	400	548
0	2449	400.950969535486	549
0	2450	400.950969535486	550
0	2454	401.486269490754	551
0	2455	401.486269490754	552
0	2456	402	551
0	2462	403.458287753975	552
0	2463	403.458287753975	553
0	2464	404	552
0	2470	404.390036763138	553
0	2471	404.390036763138	554
0	2475	405.873254039867	555
0	2476	405.873254039867	556
0	2477	406	555
0	2483	407.284311600436	556
0	2484	407.284311600436	557
0	2485	408	556
0	2491	408.870705653416	557
0	2492	408.870705653416	558
0	2496	409.072753915438	559
0	2497	409.072753915438	560
0	2498	410	559
0	2504	410.251850241756	560
0	2505	410.251850241756	561
0	2509	411.163478791833	562
0	2510	411.163478791833	563
0	2511	412	562
0	2517	413.21610090954	563
0	2518	413.21610090954	564
0	2519	414	563
0	2525	414.435608259119	564
0	2526	414.435608259119	565
0	2530	415.391242867128	566
0	2531	415.391242867128	567
0	2532	416	566
0	2538	416.394084433565	567
0	2539	416.394084433565	568
0	2543	417.078798096484	569
0	2544	417.078798096484	570
0	2548	417.200528265813	571
0	2549	417.200528265813	572
0	2550	418	571
0	2556	418.313275581715	572
0	2557	418.313275581715	573
0	2558	420	572
0	2564	420.177964198805	573
0	2565	420.177964198805	574
0	2566	422	573
0	2572	422.034446117298	574
0	2573	422.034446117298	575
0	2577	422.640329566715	576
0	2578	422.640329566715	577
0	2582	423.489365934655	578
0	2583	423.489365934655	579
0	2584	424	578
0	2590	425.021118868342	579
0	2591	425.021118868342	580
0	2592	426	579
0	2598	426.065069156971	580
0	2599	426.065069156971	581
0	2603	426.929704141953	582
0	2604	426.929704141953	583
0	2605	428	582
0	2611	428.23204363536	583
0	2612	428.23204363536	584
0	2616	428.544842382387	585
0	2617	428.544842382387	586
0	2618	430	585
0	2624	430.870573026244	586
0	2625	430.870573026244	587
0	2626	432	586
0	2632	432.667103356966	587
0	2633	432.667103356966	588
0	2637	433.412810258264	589
0	2638	433.412810258264	590
0	2639	434	589
0	2645	434.111106734291	590
0	2646	434.111106734291	591
0	2650	434.777791580613	592
0	2651	434.777791580613	593
0	2652	436	592
0	2658	436.00936449124	593
0	2659	436.00936449124	594
0	2663	436.429067629812	595
0	2664	436.429067629812	596
0	2668	436.98119579605	597
0	2669	436.98119579605	598
0	2673	437.814006345558	599
0	2674	437.814006345558	600
0	2675	438	599
0	2681	438.623673863294	600
0	2682	438.623673863294	601
0	2686	439.400703012403	602
0	2687	439.400703012403	603
0	2688	440	602
0	2694	440.202750759495	603
0	2695	440.202750759495	604
0	2699	441.462290847139	605
0	2700	441.462290847139	606
0	2701	442	605
0	2707	442.385963257909	606
0	2708	442.385963257909	607
0	2712	443.641825290451	608
0	2713	443.641825290451	609
0	2714	444	608
0	2720	444.289966404687	609
0	2721	444.289966404687	610
0	2725	445.447046419332	611
0	2726	445.447046419332	612
0	2727	446	611
0	2733	446.765108889705	612
0	2734	446.765108889705	613
0	2738	447.767593882354	614
0	2739	447.767593882354	615
0	2740	448	614
0	2746	449.220536553619	615
0	2747	449.220536553619	616
0	2748	450	615
0	2754	450.848766864818	616
0	2755	450.848766864818	617
0	2756	452	616
0	2762	452.182497450862	617
0	2763	452.182497450862	618
0	2767	452.51029579227	619
0	2768	452.51029579227	620
0	2772	452.842769383158	621
0	2773	452.842769383158	622
0	2774	454	621
0	2780	454.131756044313	622
0	2781	454.131756044313	623
0	2785	454.242598950424	624
0	2786	454.242598950424	625
0	2790	454.68759243654	626
0	2791	454.68759243654	627
0	2795	455.520437480513	628
0	2796	455.520437480513	629
0	2797	456	628
0	2803	456.233227320747	629
0	2804	456.233227320747	630
0	2808	457.017184917091	631
0	2809	457.017184917091	632
0	2810	458	631
0	2816	458.209077995324	632
0	2817	458.209077995324	633
0	2821	459.279675756803	634
0	2822	459.279675756803	635
0	2826	459.929743093195	636
0	2827	459.929743093195	637
0	2828	460	636
0	2834	461.308255456382	637
0	2835	461.308255456382	638
0	2836	462	637
0	2842	463.782250939552	638
0	2843	463.782250939552	639
0	2844	464	638
0	2850	465.022332483978	639
0	2851	465.022332483978	640
0	2855	465.783364492297	641
0	2856	465.783364492297	642
0	2857	466	641
0	2863	466.768601168842	642
0	2864	466.768601168842	643
0	2868	467.152433037573	644
0	2869	467.152433037573	645
0	2873	467.79511394884	646
0	2874	467.79511394884	647
0	2875	468	646
0	2881	469.327414655701	647
0	2882	469.327414655701	648
0	2883	470	647
0	2889	470.266959928573	648
0	2890	470.266959928573	649
0	2894	471.161260902735	650
0	2895	471.161260902735	651
0	2896	472	650
0	2902	472.279142177966	651
0	2903	472.279142177966	652
0	2907	472.510897667091	653
0	2908	472.510897667091	654
0	2912	473.62053317722	655
0	2913	473.62053317722	656
0	2914	474	655
0	2920	474.99376719705	656
0	2921	474.99376719705	657
0	2925	475.075505847878	658
0	2926	475.075505847878	659
0	2930	475.90452615182	660
0	2931	475.90452615182	661
0	2932	476	660
0	2938	476.916595686739	661
0	2939	476.916595686739	662
0	2943	477.702020427632	663
0	2944	477.702020427632	664
0	2945	478	663
0	2951	478.326070337705	664
0	2952	478.326070337705	665
0	2956	479.046537335944	666
0	2957	479.046537335944	667
0	2958	480	666
0	2964	480.454353876262	667
0	2965	480.454353876262	668
0	2969	481.383835102351	669
0	2970	481.383835102351	670
0	2971	482	669
0	2977	483.31138448986	670
0	2978	483.31138448986	671
0	2982	483.789554369337	672
0	2983	483.789554369337	673
0	2984	484	672
0	2990	484.42175408628	673
0	2991	484.42175408628	674
0	2995	485.463892876222	675
0	2996	485.463892876222	676
0	2997	486	675
0	3003	487.596098728684	676
0	3004	487.596098728684	677
0	3005	488	676
0	3011	489.282990881271	677
0	3012	489.282990881271	678
0	3013	490	677
0	3019	490.010284115258	678
0	3020	490.010284115258	679
0	3024	491.527457710755	680
0	3025	491.527457710755	681
0	3029	491.846810151594	682
0	3030	491.846810151594	683
0	3031	492	682
0	3037	493.242973682925	683
0	3038	493.242973682925	684
0	3039	494	683
0	3045	495.016132400608	684