version 3
run MMc-36-20221127-11:38:42-21264
attr configname MMc
attr datetime 20221127-11:38:42
attr datetimef 20221127-113842
attr experiment MMc
attr inifile omnetpp.ini
attr iterationvars "$mean=uniform(0.5s, 1.5s), $dev=0.5*(uniform(0.5s, 1.5s)), $time=2.5, $num=1, $0=53542, $1=75335, $2=34542"
attr iterationvarsd mean=uniform(0.5s,_1.5s)/dev=0.5#2a(uniform(0.5s,_1.5s))/time=2.5/num=1/53542/75335/34542
attr iterationvarsf mean=uniform(0.5s,_1.5s),dev=0.5#2a(uniform(0.5s,_1.5s)),time=2.5,num=1,53542,75335,34542-
attr measurement "$mean=uniform(0.5s, 1.5s), $dev=0.5*(uniform(0.5s, 1.5s)), $time=2.5, $num=1, $0=53542, $1=75335, $2=34542"
attr network MMc
attr processid 21264
attr repetition 0
attr replication #0
attr resultdir results
attr runnumber 36
attr seedset 36
itervar dev "0.5*(uniform(0.5s, 1.5s))"
itervar mean "uniform(0.5s, 1.5s)"
itervar num 1
itervar time 2.5
config description "MMc module"
config network MMc
config MMc.source.interArrivalTime "truncnormal(uniform(0.5s, 1.5s), 0.5*(uniform(0.5s, 1.5s)))"
config MMc.mmc.serviceTime 2.5s
config MMc.mmc.c 1
config MMc.mmc.capacity 10000
config record-eventlog false
config **.scalar-recording true
config **.vector-recording true
config repeat 4
config seed-1-mt 53542
config seed-2-mt 75335
config seed-3-mt 34542
config output-vector-file MMc-1-2.5-results/0.vec
config output-scalar-file MMc-1-2.5-results/0.sca

vector 0 MMc.mmc queueLength:vector ETV
attr interpolationmode none
attr recordingmode vector
attr title "queue length"
vector 1 MMc.mmc util:vector ETV
attr interpolationmode none
attr recordingmode vector
attr title resources
0	0	0	0
0	3	10	1
0	5	11.146051201901	2
0	6	11.146051201901	3
0	7	12.5	2
0	10	12.838329967107	3
0	11	12.838329967107	4
0	13	14.393061249722	5
0	14	14.393061249722	6
0	16	14.75464340958	7
0	17	14.75464340958	8
0	18	15	7
0	21	16.026502481021	8
0	22	16.026502481021	9
0	23	17.5	8
0	26	18.768787994888	9
0	27	18.768787994888	10
0	29	19.851393837582	11
0	30	19.851393837582	12
0	31	20	11
0	34	20.592678827671	12
0	35	20.592678827671	13
0	37	20.807302429595	14
0	38	20.807302429595	15
0	40	21.875510750592	16
0	41	21.875510750592	17
0	42	22.5	16
0	45	22.666410704748	17
0	46	22.666410704748	18
0	48	23.49637961034	19
0	49	23.49637961034	20
0	51	24.139104719099	21
0	52	24.139104719099	22
0	54	24.79728171815	23
0	55	24.79728171815	24
0	56	25	23
0	59	25.422207005964	24
0	60	25.422207005964	25
0	62	26.796121698382	26
0	63	26.796121698382	27
0	64	27.5	26
0	67	27.554857492458	27
0	68	27.554857492458	28
0	70	28.308313703195	29
0	71	28.308313703195	30
0	73	29.390946105246	31
0	74	29.390946105246	32
0	75	30	31
0	78	30.242245209833	32
0	79	30.242245209833	33
0	81	31.018470857863	34
0	82	31.018470857863	35
0	83	32.5	34
0	86	32.586716979664	35
0	87	32.586716979664	36
0	89	33.581767609896	37
0	90	33.581767609896	38
0	92	34.692933406028	39
0	93	34.692933406028	40
0	94	35	39
0	97	35.777596820036	40
0	98	35.777596820036	41
0	100	37.447332765712	42
0	101	37.447332765712	43
0	102	37.5	42
0	105	38.902820310665	43
0	106	38.902820310665	44
0	108	39.585466492139	45
0	109	39.585466492139	46
0	111	39.970634339347	47
0	112	39.970634339347	48
0	113	40	47
0	116	41.006779702456	48
0	117	41.006779702456	49
0	119	41.884373570925	50
0	120	41.884373570925	51
0	121	42.5	50
0	124	42.610289703792	51
0	125	42.610289703792	52
0	127	43.55999625196	53
0	128	43.55999625196	54
0	130	43.577294956016	55
0	131	43.577294956016	56
0	133	44.71955052452	57
0	134	44.71955052452	58
0	135	45	57
0	138	46.097932412037	58
0	139	46.097932412037	59
0	141	47.197351025229	60
0	142	47.197351025229	61
0	143	47.5	60
0	146	48.087469414763	61
0	147	48.087469414763	62
0	148	50	61
0	151	50.185718245732	62
0	152	50.185718245732	63
0	154	51.748278137994	64
0	155	51.748278137994	65
0	156	52.5	64
0	159	52.857893470287	65
0	160	52.857893470287	66
0	162	53.879468179624	67
0	163	53.879468179624	68
0	165	54.222897494422	69
0	166	54.222897494422	70
0	167	55	69
0	170	55.476412903125	70
0	171	55.476412903125	71
0	173	56.334127333046	72
0	174	56.334127333046	73
0	175	57.5	72
0	178	57.957802458876	73
0	179	57.957802458876	74
0	181	59.84284704471	75
0	182	59.84284704471	76
0	183	60	75
0	186	61.033075631865	76
0	187	61.033075631865	77
0	189	62.00056863828	78
0	190	62.00056863828	79
0	191	62.5	78
0	194	63.45759928205	79
0	195	63.45759928205	80
0	196	65	79
0	199	65.12170211079	80
0	200	65.12170211079	81
0	202	66.232337071791	82
0	203	66.232337071791	83
0	205	66.922984295141	84
0	206	66.922984295141	85
0	207	67.5	84
0	210	68.416187252589	85
0	211	68.416187252589	86
0	212	70	85
0	215	70.333218084225	86
0	216	70.333218084225	87
0	218	71.47428563942	88
0	219	71.47428563942	89
0	220	72.5	88
0	223	73.035026181853	89
0	224	73.035026181853	90
0	226	73.336787786664	91
0	227	73.336787786664	92
0	229	73.902899536163	93
0	230	73.902899536163	94
0	232	74.932979280342	95
0	233	74.932979280342	96
0	234	75	95
0	236	77.5	94
0	239	77.864703923702	95
0	240	77.864703923702	96
0	242	79.148973392396	97
0	243	79.148973392396	98
0	245	79.621860222292	99
0	246	79.621860222292	100
0	247	80	99
0	250	80.423537027838	100
0	251	80.423537027838	101
0	253	81.488211370225	102
0	254	81.488211370225	103
0	256	81.646469786172	104
0	257	81.646469786172	105
0	258	82.5	104
0	261	82.521760991806	105
0	262	82.521760991806	106
0	264	83.618118273938	107
0	265	83.618118273938	108
0	267	84.898112130655	109
0	268	84.898112130655	110
0	269	85	109
0	272	86.432044862851	110
0	273	86.432044862851	111
0	275	87.330003333477	112
0	276	87.330003333477	113
0	277	87.5	112
0	280	88.356500931778	113
0	281	88.356500931778	114
0	282	90	113
0	285	90.005727149947	114
0	286	90.005727149947	115
0	288	90.239742606526	116
0	289	90.239742606526	117
0	291	91.800195271037	118
0	292	91.800195271037	119
0	293	92.5	118
0	296	92.680909229328	119
0	297	92.680909229328	120
0	299	94.284829822164	121
0	300	94.284829822164	122
0	301	95	121
0	304	95.337757462738	122
0	305	95.337757462738	123
0	307	95.740124793287	124
0	308	95.740124793287	125
0	310	96.159699454285	126
0	311	96.159699454285	127
0	313	96.354687157866	128
0	314	96.354687157866	129
0	316	96.731354020932	130
0	317	96.731354020932	131
0	319	97.311417401267	132
0	320	97.311417401267	133
0	321	97.5	132
0	324	97.968699937282	133
0	325	97.968699937282	134
0	327	99.344265461259	135
0	328	99.344265461259	136
0	329	100	135
0	332	100.929032265297	136
0	333	100.929032265297	137
0	334	102.5	136
0	337	103.224050874458	137
0	338	103.224050874458	138
0	339	105	137
0	342	105.15565943431	138
0	343	105.15565943431	139
0	345	105.861761323374	140
0	346	105.861761323374	141
0	348	106.693081315564	142
0	349	106.693081315564	143
0	350	107.5	142
0	353	107.872245874673	143
0	354	107.872245874673	144
0	356	108.557947068665	145
0	357	108.557947068665	146
0	359	109.949475730141	147
0	360	109.949475730141	148
0	361	110	147
0	364	110.733699785967	148
0	365	110.733699785967	149
0	367	111.672498882059	150
0	368	111.672498882059	151
0	369	112.5	150
0	372	113.053414535893	151
0	373	113.053414535893	152
0	375	114.878086929557	153
0	376	114.878086929557	154
0	377	115	153
0	380	115.018286135261	154
0	381	115.018286135261	155
0	383	115.985338397003	156
0	384	115.985338397003	157
0	386	116.287284725164	158
0	387	116.287284725164	159
0	389	116.818280431449	160
0	390	116.818280431449	161
0	391	117.5	160
0	394	117.966466679363	161
0	395	117.966466679363	162
0	397	119.210639301613	163
0	398	119.210639301613	164
0	400	119.48637315017	165
0	401	119.48637315017	166
0	402	120	165
0	405	121.085385099714	166
0	406	121.085385099714	167
0	407	122.5	166
0	410	123.024255897041	167
0	411	123.024255897041	168
0	413	124.118662900627	169
0	414	124.118662900627	170
0	415	125	169
0	418	125.156772739097	170
0	419	125.156772739097	171
0	421	126.52326043507	172
0	422	126.52326043507	173
0	423	127.5	172
0	426	127.942409949864	173
0	427	127.942409949864	174
0	429	129.224127194836	175
0	430	129.224127194836	176
0	431	130	175
0	434	130.480120889905	176
0	435	130.480120889905	177
0	437	130.918673686498	178
0	438	130.918673686498	179
0	440	131.287882465026	180
0	441	131.287882465026	181
0	442	132.5	180
0	445	132.532567113927	181
0	446	132.532567113927	182
0	448	133.476465370388	183
0	449	133.476465370388	184
0	450	135	183
0	453	136.168320709203	184
0	454	136.168320709203	185
0	456	137.242814424425	186
0	457	137.242814424425	187
0	458	137.5	186
0	461	138.344847537831	187
0	462	138.344847537831	188
0	464	139.174750955192	189
0	465	139.174750955192	190
0	466	140	189
0	469	141.133973390235	190
0	470	141.133973390235	191
0	472	142.364033716036	192
0	473	142.364033716036	193
0	474	142.5	192
0	477	143.703348010517	193
0	478	143.703348010517	194
0	480	144.004993050088	195
0	481	144.004993050088	196
0	482	145	195
0	485	146.100235874878	196
0	486	146.100235874878	197
0	487	147.5	196
0	490	148.013823592341	197
0	491	148.013823592341	198
0	493	149.395639202106	199
0	494	149.395639202106	200
0	495	150	199
0	498	150.030755738583	200
0	499	150.030755738583	201
0	501	151.480266021952	202
0	502	151.480266021952	203
0	503	152.5	202
0	506	152.643540221733	203
0	507	152.643540221733	204
0	509	153.319513726096	205
0	510	153.319513726096	206
0	512	153.759998163103	207
0	513	153.759998163103	208
0	514	155	207
0	517	155.179372283945	208
0	518	155.179372283945	209
0	520	156.390514316797	210
0	521	156.390514316797	211
0	523	156.457982886501	212
0	524	156.457982886501	213
0	526	157.063887831606	214
0	527	157.063887831606	215
0	528	157.5	214
0	531	157.765296881073	215
0	532	157.765296881073	216
0	534	159.04432604282	217
0	535	159.04432604282	218
0	536	160	217
0	539	160.678201297407	218
0	540	160.678201297407	219
0	542	160.722296567869	220
0	543	160.722296567869	221
0	545	161.933991644442	222
0	546	161.933991644442	223
0	547	162.5	222
0	550	162.995032645918	223
0	551	162.995032645918	224
0	553	163.894245858182	225
0	554	163.894245858182	226
0	556	164.178028013937	227
0	557	164.178028013937	228
0	558	165	227
0	561	165.461239887388	228
0	562	165.461239887388	229
0	564	166.072429377275	230
0	565	166.072429377275	231
0	567	167.091437787022	232
0	568	167.091437787022	233
0	569	167.5	232
0	572	168.55189851864	233
0	573	168.55189851864	234
0	575	169.321603154169	235
0	576	169.321603154169	236
0	577	170	235
0	580	170.14122785571	236
0	581	170.14122785571	237
0	583	171.841951537863	238
0	584	171.841951537863	239
0	585	172.5	238
0	588	173.297403625323	239
0	589	173.297403625323	240
0	591	173.772279662228	241
0	592	173.772279662228	242
0	594	174.552101291159	243
0	595	174.552101291159	244
0	596	175	243
0	599	175.736017788857	244
0	600	175.736017788857	245
0	602	177.209194419882	246
0	603	177.209194419882	247
0	604	177.5	246
0	607	178.828952535787	247
0	608	178.828952535787	248
0	610	179.526529917723	249
0	611	179.526529917723	250
0	613	179.998221351034	251
0	614	179.998221351034	252
0	615	180	251
0	618	181.343280792201	252
0	619	181.343280792201	253
0	620	182.5	252
0	623	183.130573566654	253
0	624	183.130573566654	254
0	626	183.322340144977	255
0	627	183.322340144977	256
0	629	184.700167451979	257
0	630	184.700167451979	258
0	631	185	257
0	634	185.419836741905	258
0	635	185.419836741905	259
0	637	186.201744936423	260
0	638	186.201744936423	261
0	640	186.570172668384	262
0	641	186.570172668384	263
0	642	187.5	262
0	645	187.658762198937	263
0	646	187.658762198937	264
0	648	188.985110343903	265
0	649	188.985110343903	266
0	651	189.665548586995	267
0	652	189.665548586995	268
0	653	190	267
0	656	190.320994005643	268
0	657	190.320994005643	269
0	658	192.5	268
0	661	192.894729480176	269
0	662	192.894729480176	270
0	664	194.093800462601	271
0	665	194.093800462601	272
0	666	195	271
0	669	195.111486370054	272
0	670	195.111486370054	273
0	672	195.71890540878	274
0	673	195.71890540878	275
0	675	196.737901015842	276
0	676	196.737901015842	277
0	678	197.492195259156	278
0	679	197.492195259156	279
0	680	197.5	278
0	683	198.369689692478	279
0	684	198.369689692478	280
0	686	199.882981726438	281
0	687	199.882981726438	282
0	688	200	281
0	691	201.614421194385	282
0	692	201.614421194385	283
0	693	202.5	282
0	696	203.068839368369	283
0	697	203.068839368369	284
0	699	203.18107935128	285
0	700	203.18107935128	286
0	702	203.845781140648	287
0	703	203.845781140648	288
0	705	203.989678837818	289
0	706	203.989678837818	290
0	708	204.400746595646	291
0	709	204.400746595646	292
0	710	205	291
0	713	205.088361040821	292
0	714	205.088361040821	293
0	716	205.575419021279	294
0	717	205.575419021279	295
0	719	205.721395181994	296
0	720	205.721395181994	297
0	722	206.54772608943	298
0	723	206.54772608943	299
0	725	206.976454886216	300
0	726	206.976454886216	301
0	727	207.5	300
0	730	209.337461039746	301
0	731	209.337461039746	302
0	732	210	301
0	735	211.07368882482	302
0	736	211.07368882482	303
0	738	211.630901123909	304
0	739	211.630901123909	305
0	740	212.5	304
0	743	212.531016163521	305
0	744	212.531016163521	306
0	746	214.488942035683	307
0	747	214.488942035683	308
0	748	215	307
0	751	215.621314988251	308
0	752	215.621314988251	309
0	754	216.773482807786	310
0	755	216.773482807786	311
0	757	217.379528656064	312
0	758	217.379528656064	313
0	759	217.5	312
0	762	219.381922300091	313
0	763	219.381922300091	314
0	764	220	313
0	767	220.708629797806	314
0	768	220.708629797806	315
0	770	221.118767500299	316
0	771	221.118767500299	317
0	773	222.434446607402	318
0	774	222.434446607402	319
0	775	222.5	318
0	778	223.317672718733	319
0	779	223.317672718733	320
0	781	224.764797839391	321
0	782	224.764797839391	322
0	783	225	321
0	786	225.645345869176	322
0	787	225.645345869176	323
0	789	227.248411930514	324
0	790	227.248411930514	325
0	791	227.5	324
0	794	228.37375107214	325
0	795	228.37375107214	326
0	797	229.61901369999	327
0	798	229.61901369999	328
0	799	230	327
0	802	230.780989503873	328
0	803	230.780989503873	329
0	805	231.525821081761	330
0	806	231.525821081761	331
0	808	232.315031020337	332
0	809	232.315031020337	333
0	810	232.5	332
0	813	233.730870435166	333
0	814	233.730870435166	334
0	816	234.059911242698	335
0	817	234.059911242698	336
0	818	235	335
0	821	236.225295011452	336
0	822	236.225295011452	337
0	824	236.612090264987	338
0	825	236.612090264987	339
0	827	237.300361286222	340
0	828	237.300361286222	341
0	829	237.5	340
0	832	238.414563686915	341
0	833	238.414563686915	342
0	835	239.202326754095	343
0	836	239.202326754095	344
0	837	240	343
0	840	240.403249684696	344
0	841	240.403249684696	345
0	843	241.520879842331	346
0	844	241.520879842331	347
0	846	241.700611259683	348
0	847	241.700611259683	349
0	848	242.5	348
0	851	242.963465246974	349
0	852	242.963465246974	350
0	854	243.967237662198	351
0	855	243.967237662198	352
0	856	245	351
0	859	245.242143761989	352
0	860	245.242143761989	353
0	862	245.705540651235	354
0	863	245.705540651235	355
0	865	247.203027794257	356
0	866	247.203027794257	357
0	867	247.5	356
0	870	247.743479861604	357
0	871	247.743479861604	358
0	873	248.410853961456	359
0	874	248.410853961456	360
0	876	249.855025254339	361
0	877	249.855025254339	362
0	878	250	361
0	881	250.481599518422	362
0	882	250.481599518422	363
0	884	251.820679549509	364
0	885	251.820679549509	365
0	886	252.5	364
0	889	252.548377561502	365
0	890	252.548377561502	366
0	892	253.301391848894	367
0	893	253.301391848894	368
0	895	254.204262345268	369
0	896	254.204262345268	370
0	897	255	369
0	900	256.029704454089	370
0	901	256.029704454089	371
0	902	257.5	370
0	905	257.789788580545	371
0	906	257.789788580545	372
0	908	258.88570805368	373
0	909	258.88570805368	374
0	910	260	373
0	913	260.058123927171	374
0	914	260.058123927171	375
0	916	261.046900830087	376
0	917	261.046900830087	377
0	919	261.713322017924	378
0	920	261.713322017924	379
0	921	262.5	378
0	924	262.88647718309	379
0	925	262.88647718309	380
0	927	262.930170732619	381
0	928	262.930170732619	382
0	930	263.874984238485	383
0	931	263.874984238485	384
0	933	264.64981273352	385
0	934	264.64981273352	386
0	935	265	385
0	938	266.314024195794	386
0	939	266.314024195794	387
0	941	267.282983005174	388
0	942	267.282983005174	389
0	943	267.5	388
0	946	268.603518519848	389
0	947	268.603518519848	390
0	948	270	389
0	951	270.234411476416	390
0	952	270.234411476416	391
0	954	271.152086750387	392
0	955	271.152086750387	393
0	957	271.813446490642	394
0	958	271.813446490642	395
0	959	272.5	394
0	962	273.506333561052	395
0	963	273.506333561052	396
0	964	275	395
0	967	275.050502604318	396
0	968	275.050502604318	397
0	970	276.658671474186	398
0	971	276.658671474186	399
0	972	277.5	398
0	975	277.715803592907	399
0	976	277.715803592907	400
0	978	279.370797371155	401
0	979	279.370797371155	402
0	980	280	401
0	983	281.205357877554	402
0	984	281.205357877554	403
0	986	282.413809431989	404
0	987	282.413809431989	405
0	988	282.5	404
0	991	283.245019176343	405
0	992	283.245019176343	406
0	994	283.246682918661	407
0	995	283.246682918661	408
0	997	283.536804765656	409
0	998	283.536804765656	410
0	999	285	409
0	1002	285.097144143294	410
0	1003	285.097144143294	411
0	1005	285.661332719936	412
0	1006	285.661332719936	413
0	1007	287.5	412
0	1010	287.530602299817	413
0	1011	287.530602299817	414
0	1013	288.986206263325	415
0	1014	288.986206263325	416
0	1016	289.606965147616	417
0	1017	289.606965147616	418
0	1018	290	417
0	1021	290.605416075762	418
0	1022	290.605416075762	419
0	1024	291.912028792836	420
0	1025	291.912028792836	421
0	1026	292.5	420
0	1029	293.03546615885	421
0	1030	293.03546615885	422
0	1031	295	421
0	1034	295.081393031731	422
0	1035	295.081393031731	423
0	1037	296.061321091259	424
0	1038	296.061321091259	425
0	1039	297.5	424
0	1042	297.88658098092	425
0	1043	297.88658098092	426
0	1045	299.698321361913	427
0	1046	299.698321361913	428
0	1047	300	427
0	1050	300.644191571302	428
0	1051	300.644191571302	429
0	1053	301.276698948906	430
0	1054	301.276698948906	431
0	1055	302.5	430
0	1058	302.604271578216	431
0	1059	302.604271578216	432
0	1061	303.35012958737	433
0	1062	303.35012958737	434
0	1064	304.619773761952	435
0	1065	304.619773761952	436
0	1066	305	435
0	1069	305.981463849331	436
0	1070	305.981463849331	437
0	1071	307.5	436
0	1074	307.645532930484	437
0	1075	307.645532930484	438
0	1077	308.342187133513	439
0	1078	308.342187133513	440
0	1079	310	439
0	1082	310.161687531139	440
0	1083	310.161687531139	441
0	1085	311.220121629821	442
0	1086	311.220121629821	443
0	1088	312.274204149926	444
0	1089	312.274204149926	445
0	1090	312.5	444
0	1093	313.277154580108	445
0	1094	313.277154580108	446
0	1096	314.31778149507	447
0	1097	314.31778149507	448
0	1098	315	447
0	1101	315.903569469162	448
0	1102	315.903569469162	449
0	1104	316.386767261379	450
0	1105	316.386767261379	451
0	1107	317.462305417523	452
0	1108	317.462305417523	453
0	1109	317.5	452
0	1112	318.290309716094	453
0	1113	318.290309716094	454
0	1115	319.096976656073	455
0	1116	319.096976656073	456
0	1118	319.822613134035	457
0	1119	319.822613134035	458
0	1120	320	457
0	1123	321.196462633492	458
0	1124	321.196462633492	459
0	1126	321.589731264793	460
0	1127	321.589731264793	461
0	1128	322.5	460
0	1131	322.769068907088	461
0	1132	322.769068907088	462
0	1133	325	461
0	1136	325.184082883531	462
0	1137	325.184082883531	463
0	1139	325.565194016979	464
0	1140	325.565194016979	465
0	1142	326.45369507477	466
0	1143	326.45369507477	467
0	1145	327.491000631466	468
0	1146	327.491000631466	469
0	1147	327.5	468
0	1150	328.775263408235	469
0	1151	328.775263408235	470
0	1153	329.747661508496	471
0	1154	329.747661508496	472
0	1155	330	471
0	1158	331.407925233973	472
0	1159	331.407925233973	473
0	1160	332.5	472
0	1163	332.925102928533	473
0	1164	332.925102928533	474
0	1166	334.513789199687	475
0	1167	334.513789199687	476
0	1168	335	475
0	1171	335.146647220486	476
0	1172	335.146647220486	477
0	1174	335.611874960628	478
0	1175	335.611874960628	479
0	1177	336.368706104021	480
0	1178	336.368706104021	481
0	1179	337.5	480
0	1182	337.743968716321	481
0	1183	337.743968716321	482
0	1185	339.373858809362	483
0	1186	339.373858809362	484
0	1187	340	483
0	1190	341.275941069072	484
0	1191	341.275941069072	485
0	1192	342.5	484
0	1195	342.544160216769	485
0	1196	342.544160216769	486
0	1198	343.880768285153	487
0	1199	343.880768285153	488
0	1200	345	487
0	1203	345.786176828998	488
0	1204	345.786176828998	489
0	1206	346.871776395513	490
0	1207	346.871776395513	491
0	1208	347.5	490
0	1211	347.743570744459	491
0	1212	347.743570744459	492
0	1214	349.161079546027	493
0	1215	349.161079546027	494
0	1216	350	493
0	1219	350.3720030598	494
0	1220	350.3720030598	495
0	1222	350.880654730085	496
0	1223	350.880654730085	497
0	1225	352.086913438436	498
0	1226	352.086913438436	499
0	1228	352.316237977914	500
0	1229	352.316237977914	501
0	1230	352.5	500
0	1233	353.199853238031	501
0	1234	353.199853238031	502
0	1236	354.21853920924	503
0	1237	354.21853920924	504
0	1239	354.337988264892	505
0	1240	354.337988264892	506
0	1242	354.986974495333	507
0	1243	354.986974495333	508
0	1244	355	507
0	1247	355.666770424998	508
0	1248	355.666770424998	509
0	1250	356.246663710572	510
0	1251	356.246663710572	511
0	1253	357.475248826945	512
0	1254	357.475248826945	513
0	1255	357.5	512
0	1258	358.100215574735	513
0	1259	358.100215574735	514
0	1261	359.60553787402	515
0	1262	359.60553787402	516
0	1263	360	515
0	1266	360.574454288485	516
0	1267	360.574454288485	517
0	1269	361.312788555721	518
0	1270	361.312788555721	519
0	1272	361.93733627429	520
0	1273	361.93733627429	521
0	1274	362.5	520
0	1277	362.993066893015	521
0	1278	362.993066893015	522
0	1280	363.418005173059	523
0	1281	363.418005173059	524
0	1283	363.839733781594	525
0	1284	363.839733781594	526
0	1286	364.480367048034	527
0	1287	364.480367048034	528
0	1288	365	527
0	1291	365.261315735433	528
0	1292	365.261315735433	529
0	1294	366.499147175508	530
0	1295	366.499147175508	531
0	1296	367.5	530
0	1299	367.926507638969	531
0	1300	367.926507638969	532
0	1302	369.250799082903	533
0	1303	369.250799082903	534
0	1304	370	533
0	1307	370.590905728556	534
0	1308	370.590905728556	535
0	1310	371.286858386953	536
0	1311	371.286858386953	537
0	1313	372.353603837097	538
0	1314	372.353603837097	539
0	1315	372.5	538
0	1318	373.335779129283	539
0	1319	373.335779129283	540
0	1320	375	539
0	1323	375.057674034733	540
0	1324	375.057674034733	541
0	1326	375.260777245506	542
0	1327	375.260777245506	543
0	1329	376.738129055305	544
0	1330	376.738129055305	545
0	1331	377.5	544
0	1334	377.978802481045	545
0	1335	377.978802481045	546
0	1337	379.281691506732	547
0	1338	379.281691506732	548
0	1339	380	547
0	1342	380.700261957357	548
0	1343	380.700261957357	549
0	1345	381.406598796206	550
0	1346	381.406598796206	551
0	1348	382.11581218414	552
0	1349	382.11581218414	553
0	1350	382.5	552
0	1353	383.068413465199	553
0	1354	383.068413465199	554
0	1356	384.443619411354	555
0	1357	384.443619411354	556
0	1358	385	555
0	1361	385.206941373897	556
0	1362	385.206941373897	557
0	1364	386.682902426087	558
0	1365	386.682902426087	559
0	1367	387.491511627962	560
0	1368	387.491511627962	561
0	1369	387.5	560
0	1372	388.855642634306	561
0	1373	388.855642634306	562
0	1375	389.559045712911	563
0	1376	389.559045712911	564
0	1377	390	563
0	1380	390.97705925267	564
0	1381	390.97705925267	565
0	1383	392.030071727139	566
0	1384	392.030071727139	567
0	1385	392.5	566
0	1388	393.075475546969	567
0	1389	393.075475546969	568
0	1391	393.619814448823	569
0	1392	393.619814448823	570
0	1393	395	569
0	1396	395.008720000962	570
0	1397	395.008720000962	571
0	1399	396.092865729867	572
0	1400	396.092865729867	573
0	1402	396.358711841453	574
0	1403	396.358711841453	575
0	1405	397.362447102754	576
0	1406	397.362447102754	577
0	1407	397.5	576
0	1410	398.011109294268	577
0	1411	398.011109294268	578
0	1413	399.075850160964	579
0	1414	399.075850160964	580
0	1415	400	579
0	1418	400.603935937589	580
0	1419	400.603935937589	581
0	1421	401.68431977087	582
0	1422	401.68431977087	583
0	1423	402.5	582
0	1426	402.88873368974	583
0	1427	402.88873368974	584
0	1429	403.402358639814	585
0	1430	403.402358639814	586
0	1431	405	585
0	1434	405.253091780086	586
0	1435	405.253091780086	587
0	1437	407.214914792007	588
0	1438	407.214914792007	589
0	1439	407.5	588
0	1442	408.818522966474	589
0	1443	408.818522966474	590
0	1444	410	589
0	1447	410.685014256722	590
0	1448	410.685014256722	591
0	1450	412.045119475955	592
0	1451	412.045119475955	593
0	1453	412.363034659228	594
0	1454	412.363034659228	595
0	1455	412.5	594
0	1458	414.686199806602	595
0	1459	414.686199806602	596
0	1461	414.838498202002	597
0	1462	414.838498202002	598
0	1463	415	597
0	1466	416.127115659958	598
0	1467	416.127115659958	599
0	1469	416.825128710109	600
0	1470	416.825128710109	601
0	1472	417.406583571964	602
0	1473	417.406583571964	603
0	1474	417.5	602
0	1477	418.651462234442	603
0	1478	418.651462234442	604
0	1480	419.086700135302	605
0	1481	419.086700135302	606
0	1482	420	605
0	1485	420.191089218747	606
0	1486	420.191089218747	607
0	1488	420.398661390777	608
0	1489	420.398661390777	609
0	1491	421.331856628873	610
0	1492	421.331856628873	611
0	1493	422.5	610
0	1496	422.890575151933	611
0	1497	422.890575151933	612
0	1499	423.291766837577	613
0	1500	423.291766837577	614
0	1502	424.047624499376	615
0	1503	424.047624499376	616
0	1504	425	615
0	1507	425.790799958955	616
0	1508	425.790799958955	617
0	1510	426.974742903494	618
0	1511	426.974742903494	619
0	1513	427.454451520585	620
0	1514	427.454451520585	621
0	1515	427.5	620
0	1518	429.142510268055	621
0	1519	429.142510268055	622
0	1521	429.743745837978	623
0	1522	429.743745837978	624
0	1523	430	623
0	1526	430.728901866834	624
0	1527	430.728901866834	625
0	1529	431.21773927557	626
0	1530	431.21773927557	627
0	1531	432.5	626
0	1534	432.543249313814	627
0	1535	432.543249313814	628
0	1537	433.935643501206	629
0	1538	433.935643501206	630
0	1539	435	629
0	1542	436.185951877471	630
0	1543	436.185951877471	631
0	1545	436.264127930905	632
0	1546	436.264127930905	633
0	1547	437.5	632
0	1550	437.860122405084	633
0	1551	437.860122405084	634
0	1553	439.924619687863	635
0	1554	439.924619687863	636
0	1555	440	635
0	1558	440.125764012249	636
0	1559	440.125764012249	637
0	1561	441.801845078865	638
0	1562	441.801845078865	639
0	1563	442.5	638
0	1566	442.956503064918	639
0	1567	442.956503064918	640
0	1569	443.768188217438	641
0	1570	443.768188217438	642
0	1572	444.377222159399	643
0	1573	444.377222159399	644
0	1574	445	643
0	1577	445.030191167566	644
0	1578	445.030191167566	645
0	1580	445.060173792655	646
0	1581	445.060173792655	647
0	1583	446.092451678497	648
0	1584	446.092451678497	649
0	1586	446.711425776779	650
0	1587	446.711425776779	651
0	1588	447.5	650
0	1591	447.794340057972	651
0	1592	447.794340057972	652
0	1594	448.647494005821	653
0	1595	448.647494005821	654
0	1597	449.551830810094	655
0	1598	449.551830810094	656
0	1599	450	655
0	1602	451.009499963816	656
0	1603	451.009499963816	657
0	1605	452.423257887575	658
0	1606	452.423257887575	659
0	1607	452.5	658
0	1610	453.85262784483	659
0	1611	453.85262784483	660
0	1613	454.978277154574	661
0	1614	454.978277154574	662
0	1615	455	661
0	1618	455.934399590379	662
0	1619	455.934399590379	663
0	1621	456.83585072421	664
0	1622	456.83585072421	665
0	1624	457.396489344371	666
0	1625	457.396489344371	667
0	1626	457.5	666
0	1629	457.523104596146	667
0	1630	457.523104596146	668
0	1631	460	667
0	1634	460.150340773174	668
0	1635	460.150340773174	669
0	1637	460.788625620786	670
0	1638	460.788625620786	671
0	1640	461.11672553938	672
0	1641	461.11672553938	673
0	1642	462.5	672
0	1645	462.835068564293	673
0	1646	462.835068564293	674
0	1648	463.787143949219	675
0	1649	463.787143949219	676
0	1650	465	675
0	1653	465.06907287155	676
0	1654	465.06907287155	677
0	1656	466.105244474813	678
0	1657	466.105244474813	679
0	1659	466.45110904384	680
0	1660	466.45110904384	681
0	1662	467.34918181736	682
0	1663	467.34918181736	683
0	1664	467.5	682
0	1667	467.801097125532	683
0	1668	467.801097125532	684
0	1670	467.884202156419	685
0	1671	467.884202156419	686
0	1673	468.894453650675	687
0	1674	468.894453650675	688
0	1676	468.898730471789	689
0	1677	468.898730471789	690
0	1678	470	689
0	1681	470.824409413547	690
0	1682	470.824409413547	691
0	1684	471.755729565796	692
0	1685	471.755729565796	693
0	1687	472.130097143048	694
0	1688	472.130097143048	695
0	1689	472.5	694
0	1692	473.175604329708	695
0	1693	473.175604329708	696
0	1695	473.943213795998	697
0	1696	473.943213795998	698
0	1698	474.59433437462	699
0	1699	474.59433437462	700
0	1700	475	699
0	1703	477.423990382012	700
0	1704	477.423990382012	701
0	1705	477.5	700
0	1708	477.985910610501	701
0	1709	477.985910610501	702
0	1711	479.182966138143	703
0	1712	479.182966138143	704
0	1713	480	703
0	1716	480.400152558602	704
0	1717	480.400152558602	705
0	1719	481.949153636945	706
0	1720	481.949153636945	707
0	1722	482.123666230901	708
0	1723	482.123666230901	709
0	1724	482.5	708
0	1727	483.83046370141	709
0	1728	483.83046370141	710
0	1730	483.835112260152	711
0	1731	483.835112260152	712
0	1732	485	711
0	1735	485.667565099269	712
0	1736	485.667565099269	713
0	1738	486.834496673093	714
0	1739	486.834496673093	715
0	1741	487.277696401574	716
0	1742	487.277696401574	717
0	1743	487.5	716
0	1746	487.593350472518	717
0	1747	487.593350472518	718
0	1749	488.920232386332	719
0	1750	488.920232386332	720
0	1752	489.45902313052	721
0	1753	489.45902313052	722
0	1755	489.649248422654	723
0	1756	489.649248422654	724
0	1757	490	723
0	1760	490.332531162559	724
0	1761	490.332531162559	725
0	1763	491.1617193424	726
0	1764	491.1617193424	727
0	1766	492.005319752872	728
0	1767	492.005319752872	729
0	1768	492.5	728
0	1771	493.255526788462	729
0	1772	493.255526788462	730
0	1774	494.317097221755	731
0	1775	494.317097221755	732
0	1776	495	731
0	1779	496.618849158299	732
0	1780	496.618849158299	733
0	1781	497.5	732
0	1784	498.586038536996	733
0	1785	498.586038536996	734
0	1787	499.583717146961	735
0	1788	499.583717146961	736
0	1789	500	735
0	1792	500.81147697143	736
0	1793	500.81147697143	737
0	1795	501.478776975254	738
0	1796	501.478776975254	739
0	1798	501.845118394632	740
0	1799	501.845118394632	741
0	1801	502.354255721504	742
0	1802	502.354255721504	743
0	1803	502.5	742
0	1806	503.2705689798	743
0	1807	503.2705689798	744
0	1809	504.820345106753	745
0	1810	504.820345106753	746