version 3
run MMc-37-20221127-11:38:42-21264
attr configname MMc
attr datetime 20221127-11:38:42
attr datetimef 20221127-113842
attr experiment MMc
attr inifile omnetpp.ini
attr iterationvars "$mean=uniform(0.5s, 1.5s), $dev=0.5*(uniform(0.5s, 1.5s)), $time=2.5, $num=1, $0=45732, $1=35463, $2=67563"
attr iterationvarsd mean=uniform(0.5s,_1.5s)/dev=0.5#2a(uniform(0.5s,_1.5s))/time=2.5/num=1/45732/35463/67563
attr iterationvarsf mean=uniform(0.5s,_1.5s),dev=0.5#2a(uniform(0.5s,_1.5s)),time=2.5,num=1,45732,35463,67563-
attr measurement "$mean=uniform(0.5s, 1.5s), $dev=0.5*(uniform(0.5s, 1.5s)), $time=2.5, $num=1, $0=45732, $1=35463, $2=67563"
attr network MMc
attr processid 21264
attr repetition 1
attr replication #1
attr resultdir results
attr runnumber 37
attr seedset 37
itervar dev "0.5*(uniform(0.5s, 1.5s))"
itervar mean "uniform(0.5s, 1.5s)"
itervar num 1
itervar time 2.5
config description "MMc module"
config network MMc
config MMc.source.interArrivalTime "truncnormal(uniform(0.5s, 1.5s), 0.5*(uniform(0.5s, 1.5s)))"
config MMc.mmc.serviceTime 2.5s
config MMc.mmc.c 1
config MMc.mmc.capacity 10000
config record-eventlog false
config **.scalar-recording true
config **.vector-recording true
config repeat 4
config seed-1-mt 45732
config seed-2-mt 35463
config seed-3-mt 67563
config output-vector-file MMc-1-2.5-results/1.vec
config output-scalar-file MMc-1-2.5-results/1.sca

vector 0 MMc.mmc queueLength:vector ETV
attr interpolationmode none
attr recordingmode vector
attr title "queue length"
vector 1 MMc.mmc util:vector ETV
attr interpolationmode none
attr recordingmode vector
attr title resources
0	0	0	0
0	3	10	1
0	5	11.091580537398	2
0	6	11.091580537398	3
0	8	11.480581247038	4
0	9	11.480581247038	5
0	10	12.5	4
0	13	13.54190923929	5
0	14	13.54190923929	6
0	16	14.460932897295	7
0	17	14.460932897295	8
0	18	15	7
0	21	15.075018714725	8
0	22	15.075018714725	9
0	24	16.785896722613	10
0	25	16.785896722613	11
0	26	17.5	10
0	29	17.920311613477	11
0	30	17.920311613477	12
0	32	19.120827603466	13
0	33	19.120827603466	14
0	35	19.681083545032	15
0	36	19.681083545032	16
0	37	20	15
0	40	21.125031121783	16
0	41	21.125031121783	17
0	43	21.860187496264	18
0	44	21.860187496264	19
0	46	21.997095641234	20
0	47	21.997095641234	21
0	48	22.5	20
0	51	23.074708803998	21
0	52	23.074708803998	22
0	54	23.877668119454	23
0	55	23.877668119454	24
0	57	24.633695612998	25
0	58	24.633695612998	26
0	60	24.940821862214	27
0	61	24.940821862214	28
0	62	25	27
0	65	25.912760619785	28
0	66	25.912760619785	29
0	68	27.06839678245	30
0	69	27.06839678245	31
0	70	27.5	30
0	73	28.082594444008	31
0	74	28.082594444008	32
0	76	29.014124530061	33
0	77	29.014124530061	34
0	78	30	33
0	81	30.210919696838	34
0	82	30.210919696838	35
0	84	32.155443796311	36
0	85	32.155443796311	37
0	86	32.5	36
0	89	34.344623968777	37
0	90	34.344623968777	38
0	92	34.980052325455	39
0	93	34.980052325455	40
0	94	35	39
0	97	35.964294133424	40
0	98	35.964294133424	41
0	100	36.636921833278	42
0	101	36.636921833278	43
0	103	37.049128511947	44
0	104	37.049128511947	45
0	105	37.5	44
0	108	37.798204944706	45
0	109	37.798204944706	46
0	111	38.651119325447	47
0	112	38.651119325447	48
0	114	39.113886816519	49
0	115	39.113886816519	50
0	116	40	49
0	119	40.576122390457	50
0	120	40.576122390457	51
0	122	42.121737312701	52
0	123	42.121737312701	53
0	124	42.5	52
0	127	42.72028144397	53
0	128	42.72028144397	54
0	130	43.320762382468	55
0	131	43.320762382468	56
0	132	45	55
0	135	45.118188278081	56
0	136	45.118188278081	57
0	138	45.530394772361	58
0	139	45.530394772361	59
0	141	46.238649389446	60
0	142	46.238649389446	61
0	143	47.5	60
0	146	47.582572052996	61
0	147	47.582572052996	62
0	149	48.323605351365	63
0	150	48.323605351365	64
0	152	49.569183070058	65
0	153	49.569183070058	66
0	154	50	65
0	157	50.488758058997	66
0	158	50.488758058997	67
0	160	52.143963872956	68
0	161	52.143963872956	69
0	162	52.5	68
0	165	53.08944556295	69
0	166	53.08944556295	70
0	168	54.252274874278	71
0	169	54.252274874278	72
0	170	55	71
0	173	55.033766791575	72
0	174	55.033766791575	73
0	176	55.824741317573	74
0	177	55.824741317573	75
0	179	57.085628065126	76
0	180	57.085628065126	77
0	181	57.5	76
0	184	57.946885518528	77
0	185	57.946885518528	78
0	187	58.109920511013	79
0	188	58.109920511013	80
0	190	59.563367102683	81
0	191	59.563367102683	82
0	192	60	81
0	195	60.404175368426	82
0	196	60.404175368426	83
0	198	60.493297446239	84
0	199	60.493297446239	85
0	201	61.326642720589	86
0	202	61.326642720589	87
0	204	62.419025823231	88
0	205	62.419025823231	89
0	206	62.5	88
0	209	63.583019350372	89
0	210	63.583019350372	90
0	212	64.557537733344	91
0	213	64.557537733344	92
0	214	65	91
0	217	65.15815302634	92
0	218	65.15815302634	93
0	220	66.132347506049	94
0	221	66.132347506049	95
0	222	67.5	94
0	225	67.674329432797	95
0	226	67.674329432797	96
0	228	69.738159321804	97
0	229	69.738159321804	98
0	230	70	97
0	233	70.433128601326	98
0	234	70.433128601326	99
0	236	71.014829643616	100
0	237	71.014829643616	101
0	238	72.5	100
0	241	72.691917661661	101
0	242	72.691917661661	102
0	244	74.022244795677	103
0	245	74.022244795677	104
0	247	74.841129493304	105
0	248	74.841129493304	106
0	249	75	105
0	252	75.282233283973	106
0	253	75.282233283973	107
0	255	76.415835417248	108
0	256	76.415835417248	109
0	258	77.43370499094	110
0	259	77.43370499094	111
0	260	77.5	110
0	263	79.14980023379	111
0	264	79.14980023379	112
0	265	80	111
0	268	80.409500364474	112
0	269	80.409500364474	113
0	271	82.09339896247	114
0	272	82.09339896247	115
0	274	82.30260277762	116
0	275	82.30260277762	117
0	276	82.5	116
0	279	83.466890164747	117
0	280	83.466890164747	118
0	282	83.73657088173	119
0	283	83.73657088173	120
0	285	84.916752978799	121
0	286	84.916752978799	122
0	287	85	121
0	290	86.055116629425	122
0	291	86.055116629425	123
0	293	86.809969688766	124
0	294	86.809969688766	125
0	295	87.5	124
0	298	88.089653000911	125
0	299	88.089653000911	126
0	301	88.838802712797	127
0	302	88.838802712797	128
0	303	90	127
0	306	90.358117341583	128
0	307	90.358117341583	129
0	309	92.117765902816	130
0	310	92.117765902816	131
0	311	92.5	130
0	314	92.79073994929	131
0	315	92.79073994929	132
0	317	93.126457662267	133
0	318	93.126457662267	134
0	320	94.729237848981	135
0	321	94.729237848981	136
0	322	95	135
0	325	95.292991385493	136
0	326	95.292991385493	137
0	328	96.706953224653	138
0	329	96.706953224653	139
0	330	97.5	138
0	333	97.905858833853	139
0	334	97.905858833853	140
0	336	98.416467323451	141
0	337	98.416467323451	142
0	339	98.831780317861	143
0	340	98.831780317861	144
0	342	99.390107844996	145
0	343	99.390107844996	146
0	344	100	145
0	347	100.445950420761	146
0	348	100.445950420761	147
0	350	102.161079171329	148
0	351	102.161079171329	149
0	353	102.171260018556	150
0	354	102.171260018556	151
0	355	102.5	150
0	358	103.224549793992	151
0	359	103.224549793992	152
0	361	103.620300437453	153
0	362	103.620300437453	154
0	364	104.790685125313	155
0	365	104.790685125313	156
0	366	105	155
0	369	106.025364837592	156
0	370	106.025364837592	157
0	371	107.5	156
0	374	107.696031974228	157
0	375	107.696031974228	158
0	377	108.45832747663	159
0	378	108.45832747663	160
0	380	108.998370265528	161
0	381	108.998370265528	162
0	383	109.679813616149	163
0	384	109.679813616149	164
0	385	110	163
0	388	110.524176094563	164
0	389	110.524176094563	165
0	391	112.211643758442	166
0	392	112.211643758442	167
0	393	112.5	166
0	396	112.977208517313	167
0	397	112.977208517313	168
0	399	114.680383471948	169
0	400	114.680383471948	170
0	402	114.735688357487	171
0	403	114.735688357487	172
0	404	115	171
0	407	116.382752833618	172
0	408	116.382752833618	173
0	410	117.342295924922	174
0	411	117.342295924922	175
0	412	117.5	174
0	415	118.589421116582	175
0	416	118.589421116582	176
0	418	119.371928483058	177
0	419	119.371928483058	178
0	420	120	177
0	423	120.611074022143	178
0	424	120.611074022143	179
0	426	121.390213216545	180
0	427	121.390213216545	181
0	428	122.5	180
0	431	122.782363617568	181
0	432	122.782363617568	182
0	434	124.533887510307	183
0	435	124.533887510307	184
0	436	125	183
0	439	125.959744012113	184
0	440	125.959744012113	185
0	441	127.5	184
0	444	128.112506379386	185
0	445	128.112506379386	186
0	447	128.730220214616	187
0	448	128.730220214616	188
0	450	129.903741918306	189
0	451	129.903741918306	190
0	452	130	189
0	455	130.341362411893	190
0	456	130.341362411893	191
0	458	131.434501624932	192
0	459	131.434501624932	193
0	460	132.5	192
0	463	132.850964107525	193
0	464	132.850964107525	194
0	466	133.711443700373	195
0	467	133.711443700373	196
0	468	135	195
0	471	135.263483440042	196
0	472	135.263483440042	197
0	474	136.801573954464	198
0	475	136.801573954464	199
0	477	136.836845488026	200
0	478	136.836845488026	201
0	480	137.464825030266	202
0	481	137.464825030266	203
0	482	137.5	202
0	485	138.421710485092	203
0	486	138.421710485092	204
0	487	140	203
0	490	140.483030140358	204
0	491	140.483030140358	205
0	493	141.384382188901	206
0	494	141.384382188901	207
0	496	142.405331780009	208
0	497	142.405331780009	209
0	498	142.5	208
0	501	144.009793322385	209
0	502	144.009793322385	210
0	504	144.569310648688	211
0	505	144.569310648688	212
0	507	144.73087915373	213
0	508	144.73087915373	214
0	509	145	213
0	512	146.735501604958	214
0	513	146.735501604958	215
0	514	147.5	214
0	517	148.225737876748	215
0	518	148.225737876748	216
0	520	148.800622546089	217
0	521	148.800622546089	218
0	523	149.61832968349	219
0	524	149.61832968349	220
0	525	150	219
0	528	150.257067881837	220
0	529	150.257067881837	221
0	531	151.60898563156	222
0	532	151.60898563156	223
0	533	152.5	222
0	536	152.50695033693	223
0	537	152.50695033693	224
0	539	152.986355184982	225
0	540	152.986355184982	226
0	542	153.608896756722	227
0	543	153.608896756722	228
0	545	154.706940435886	229
0	546	154.706940435886	230
0	547	155	229
0	550	155.65548370262	230
0	551	155.65548370262	231
0	553	156.689681986415	232
0	554	156.689681986415	233
0	556	157.007886929032	234
0	557	157.007886929032	235
0	558	157.5	234
0	561	157.830145222666	235
0	562	157.830145222666	236
0	564	159.227033192812	237
0	565	159.227033192812	238
0	566	160	237
0	569	160.326571647455	238
0	570	160.326571647455	239
0	572	162.280421356458	240
0	573	162.280421356458	241
0	574	162.5	240
0	577	163.447294511251	241
0	578	163.447294511251	242
0	580	164.317799345629	243
0	581	164.317799345629	244
0	582	165	243
0	585	165.373678476808	244
0	586	165.373678476808	245
0	588	166.732989214031	246
0	589	166.732989214031	247
0	590	167.5	246
0	593	168.107060043373	247
0	594	168.107060043373	248
0	596	169.537384546518	249
0	597	169.537384546518	250
0	598	170	249
0	601	170.213809989265	250
0	602	170.213809989265	251
0	604	171.739198211092	252
0	605	171.739198211092	253
0	607	172.418687033111	254
0	608	172.418687033111	255
0	609	172.5	254
0	612	173.170331638721	255
0	613	173.170331638721	256
0	615	173.858245261492	257
0	616	173.858245261492	258
0	618	174.598439320249	259
0	619	174.598439320249	260
0	620	175	259
0	623	175.333720969152	260
0	624	175.333720969152	261
0	626	175.67390435575	262
0	627	175.67390435575	263
0	629	175.886789376425	264
0	630	175.886789376425	265
0	632	176.646218230997	266
0	633	176.646218230997	267
0	635	177.438189332588	268
0	636	177.438189332588	269
0	637	177.5	268
0	640	178.699165016486	269
0	641	178.699165016486	270
0	643	179.769602160718	271
0	644	179.769602160718	272
0	645	180	271
0	648	180.225375910306	272
0	649	180.225375910306	273
0	651	181.001814269282	274
0	652	181.001814269282	275
0	654	181.144765565978	276
0	655	181.144765565978	277
0	657	182.027911138407	278
0	658	182.027911138407	279
0	659	182.5	278
0	662	183.422071843107	279
0	663	183.422071843107	280
0	665	184.661341283746	281
0	666	184.661341283746	282
0	667	185	281
0	670	186.155404032883	282
0	671	186.155404032883	283
0	672	187.5	282
0	675	187.93532544427	283
0	676	187.93532544427	284
0	678	188.71137519449	285
0	679	188.71137519449	286
0	680	190	285
0	683	190.16024368851	286
0	684	190.16024368851	287
0	686	190.644465884693	288
0	687	190.644465884693	289
0	689	191.733641636168	290
0	690	191.733641636168	291
0	691	192.5	290
0	694	193.348881169098	291
0	695	193.348881169098	292
0	697	194.079259025048	293
0	698	194.079259025048	294
0	699	195	293
0	702	195.049830597012	294
0	703	195.049830597012	295
0	705	195.518819581461	296
0	706	195.518819581461	297
0	708	196.611591785709	298
0	709	196.611591785709	299
0	710	197.5	298
0	713	197.587484639255	299
0	714	197.587484639255	300
0	716	198.042140436391	301
0	717	198.042140436391	302
0	719	199.591315465553	303
0	720	199.591315465553	304
0	721	200	303
0	724	201.314135603639	304
0	725	201.314135603639	305
0	726	202.5	304
0	729	202.793192320149	305
0	730	202.793192320149	306
0	732	203.169090549456	307
0	733	203.169090549456	308
0	735	204.320645520708	309
0	736	204.320645520708	310
0	737	205	309
0	740	205.217058056595	310
0	741	205.217058056595	311
0	743	206.505416529258	312
0	744	206.505416529258	313
0	746	207.194160908646	314
0	747	207.194160908646	315
0	748	207.5	314
0	751	208.606111127822	315
0	752	208.606111127822	316
0	753	210	315
0	756	210.540473886678	316
0	757	210.540473886678	317
0	759	212.329523188439	318
0	760	212.329523188439	319
0	761	212.5	318
0	764	213.689491931713	319
0	765	213.689491931713	320
0	767	214.422320932166	321
0	768	214.422320932166	322
0	769	215	321
0	772	215.786251319889	322
0	773	215.786251319889	323
0	775	216.398357310938	324
0	776	216.398357310938	325
0	778	216.813788261909	326
0	779	216.813788261909	327
0	780	217.5	326
0	783	217.656297542807	327
0	784	217.656297542807	328
0	786	217.835890684236	329
0	787	217.835890684236	330
0	789	219.029594893568	331
0	790	219.029594893568	332
0	791	220	331
0	794	220.719824759931	332
0	795	220.719824759931	333
0	797	222.431792515062	334
0	798	222.431792515062	335
0	799	222.5	334
0	802	223.713115349583	335
0	803	223.713115349583	336
0	805	224.806228591826	337
0	806	224.806228591826	338
0	807	225	337
0	810	226.798406187285	338
0	811	226.798406187285	339
0	812	227.5	338
0	815	227.645812699323	339
0	816	227.645812699323	340
0	818	228.999389075602	341
0	819	228.999389075602	342
0	821	229.567367345307	343
0	822	229.567367345307	344
0	824	229.991741027105	345
0	825	229.991741027105	346
0	826	230	345
0	829	231.932218368983	346
0	830	231.932218368983	347
0	831	232.5	346
0	834	232.842773633942	347
0	835	232.842773633942	348
0	837	233.833964807458	349
0	838	233.833964807458	350
0	840	234.345154698938	351
0	841	234.345154698938	352
0	842	235	351
0	845	235.488763984727	352
0	846	235.488763984727	353
0	848	237.090909096668	354
0	849	237.090909096668	355
0	850	237.5	354
0	853	238.546534245245	355
0	854	238.546534245245	356
0	856	239.99818224558	357
0	857	239.99818224558	358
0	858	240	357
0	861	240.809818861833	358
0	862	240.809818861833	359
0	864	241.600317817401	360
0	865	241.600317817401	361
0	866	242.5	360
0	869	243.145429327032	361
0	870	243.145429327032	362
0	872	244.386941901717	363
0	873	244.386941901717	364
0	874	245	363
0	877	245.439544717627	364
0	878	245.439544717627	365
0	880	245.590858292166	366
0	881	245.590858292166	367
0	883	246.748138576318	368
0	884	246.748138576318	369
0	885	247.5	368
0	888	247.973602000363	369
0	889	247.973602000363	370
0	891	248.714091305828	371
0	892	248.714091305828	372
0	894	249.632098149144	373
0	895	249.632098149144	374
0	896	250	373
0	899	250.544460230112	374
0	900	250.544460230112	375
0	902	252.156531758338	376
0	903	252.156531758338	377
0	904	252.5	376
0	907	253.153776572658	377
0	908	253.153776572658	378
0	910	254.600491051504	379
0	911	254.600491051504	380
0	912	255	379
0	915	256.350264646365	380
0	916	256.350264646365	381
0	918	256.827742055915	382
0	919	256.827742055915	383
0	920	257.5	382
0	923	258.384836878189	383
0	924	258.384836878189	384
0	926	258.977351839376	385
0	927	258.977351839376	386
0	928	260	385
0	931	260.223432691283	386
0	932	260.223432691283	387
0	934	261.394454057967	388
0	935	261.394454057967	389
0	936	262.5	388
0	939	262.518870286358	389
0	940	262.518870286358	390
0	942	263.299344452307	391
0	943	263.299344452307	392
0	945	264.869860967164	393
0	946	264.869860967164	394
0	947	265	393
0	950	265.856141543365	394
0	951	265.856141543365	395
0	953	266.967204956272	396
0	954	266.967204956272	397
0	955	267.5	396
0	958	267.819047007808	397
0	959	267.819047007808	398
0	961	268.744409239875	399
0	962	268.744409239875	400
0	964	269.978220824815	401
0	965	269.978220824815	402
0	966	270	401
0	969	270.700006947567	402
0	970	270.700006947567	403
0	972	271.504576996434	404
0	973	271.504576996434	405
0	974	272.5	404
0	977	272.992297049038	405
0	978	272.992297049038	406
0	980	273.602042722931	407
0	981	273.602042722931	408
0	983	273.607382830835	409
0	984	273.607382830835	410
0	986	274.619264068796	411
0	987	274.619264068796	412
0	988	275	411
0	991	276.056601301812	412
0	992	276.056601301812	413
0	993	277.5	412
0	996	278.509231451025	413
0	997	278.509231451025	414
0	998	280	413
0	1001	280.209001725018	414
0	1002	280.209001725018	415
0	1004	281.779060555572	416
0	1005	281.779060555572	417
0	1007	282.37932774807	418
0	1008	282.37932774807	419
0	1009	282.5	418
0	1012	283.996598475563	419
0	1013	283.996598475563	420
0	1014	285	419
0	1017	285.450170452468	420
0	1018	285.450170452468	421
0	1020	286.68704142796	422
0	1021	286.68704142796	423
0	1022	287.5	422
0	1025	288.248933532559	423
0	1026	288.248933532559	424
0	1028	289.75381660846	425
0	1029	289.75381660846	426
0	1030	290	425
0	1033	291.905237615663	426
0	1034	291.905237615663	427
0	1035	292.5	426
0	1038	292.856511934239	427
0	1039	292.856511934239	428
0	1041	294.182246403668	429
0	1042	294.182246403668	430
0	1043	295	429
0	1046	295.690356560438	430
0	1047	295.690356560438	431
0	1049	296.919164023848	432
0	1050	296.919164023848	433
0	1052	297.258224494539	434
0	1053	297.258224494539	435
0	1055	297.335681603993	436
0	1056	297.335681603993	437
0	1057	297.5	436
0	1060	299.451652323195	437
0	1061	299.451652323195	438
0	1062	300	437
0	1065	300.174237854143	438
0	1066	300.174237854143	439
0	1068	301.924917303384	440
0	1069	301.924917303384	441
0	1070	302.5	440
0	1073	303.463326375577	441
0	1074	303.463326375577	442
0	1076	303.641359258839	443
0	1077	303.641359258839	444
0	1079	304.981506357248	445
0	1080	304.981506357248	446
0	1081	305	445
0	1084	306.377904158293	446
0	1085	306.377904158293	447
0	1087	307.196537459401	448
0	1088	307.196537459401	449
0	1089	307.5	448
0	1092	308.493664472984	449
0	1093	308.493664472984	450
0	1094	310	449
0	1097	310.5629254447	450
0	1098	310.5629254447	451
0	1100	311.286767338616	452
0	1101	311.286767338616	453
0	1103	312.002881715747	454
0	1104	312.002881715747	455
0	1105	312.5	454
0	1108	313.756306314294	455
0	1109	313.756306314294	456
0	1110	315	455
0	1113	315.257588250087	456
0	1114	315.257588250087	457
0	1116	315.54735260808	458
0	1117	315.54735260808	459
0	1119	316.726261049382	460
0	1120	316.726261049382	461
0	1121	317.5	460
0	1124	317.596480578551	461
0	1125	317.596480578551	462
0	1127	317.989444497808	463
0	1128	317.989444497808	464
0	1130	318.93210451537	465
0	1131	318.93210451537	466
0	1133	319.262796871064	467
0	1134	319.262796871064	468
0	1135	320	467
0	1138	320.761490801207	468
0	1139	320.761490801207	469
0	1141	321.510497735644	470
0	1142	321.510497735644	471
0	1144	322.240880040386	472
0	1145	322.240880040386	473
0	1146	322.5	472
0	1149	323.015773560058	473
0	1150	323.015773560058	474
0	1152	324.73992933536	475
0	1153	324.73992933536	476
0	1155	324.944965387668	477
0	1156	324.944965387668	478
0	1157	325	477
0	1160	325.864935890823	478
0	1161	325.864935890823	479
0	1163	326.760618946698	480
0	1164	326.760618946698	481
0	1166	327.297467930934	482
0	1167	327.297467930934	483
0	1168	327.5	482
0	1171	328.436045891097	483
0	1172	328.436045891097	484
0	1174	328.918744536339	485
0	1175	328.918744536339	486
0	1176	330	485
0	1179	330.693827087205	486
0	1180	330.693827087205	487
0	1182	331.402203222206	488
0	1183	331.402203222206	489
0	1184	332.5	488
0	1187	332.983742526542	489
0	1188	332.983742526542	490
0	1190	334.528724111209	491
0	1191	334.528724111209	492
0	1192	335	491
0	1195	335.312354904479	492
0	1196	335.312354904479	493
0	1198	335.696358354463	494
0	1199	335.696358354463	495
0	1201	336.365720295069	496
0	1202	336.365720295069	497
0	1203	337.5	496
0	1206	337.564214141015	497
0	1207	337.564214141015	498
0	1209	337.90409927535	499
0	1210	337.90409927535	500
0	1211	340	499
0	1214	340.016031077723	500
0	1215	340.016031077723	501
0	1217	341.131787331205	502
0	1218	341.131787331205	503
0	1220	341.850358694077	504
0	1221	341.850358694077	505
0	1222	342.5	504
0	1225	342.743070339166	505
0	1226	342.743070339166	506
0	1228	343.532300989933	507
0	1229	343.532300989933	508
0	1231	344.532233487836	509
0	1232	344.532233487836	510
0	1233	345	509
0	1236	346.512230068385	510
0	1237	346.512230068385	511
0	1239	347.162023816291	512
0	1240	347.162023816291	513
0	1241	347.5	512
0	1244	348.236881590069	513
0	1245	348.236881590069	514
0	1246	350	513
0	1249	350.722830605387	514
0	1250	350.722830605387	515
0	1252	351.375039651023	516
0	1253	351.375039651023	517
0	1255	351.883125670693	518
0	1256	351.883125670693	519
0	1257	352.5	518
0	1260	353.160672728211	519
0	1261	353.160672728211	520
0	1263	353.984403082595	521
0	1264	353.984403082595	522
0	1265	355	521
0	1268	355.917213972315	522
0	1269	355.917213972315	523
0	1271	356.615883045301	524
0	1272	356.615883045301	525
0	1274	356.928717539925	526
0	1275	356.928717539925	527
0	1276	357.5	526
0	1279	358.116751118124	527
0	1280	358.116751118124	528
0	1281	360	527
0	1284	360.261898447107	528
0	1285	360.261898447107	529
0	1287	361.246608731371	530
0	1288	361.246608731371	531
0	1290	362.396446949737	532
0	1291	362.396446949737	533
0	1292	362.5	532
0	1295	364.049195601064	533
0	1296	364.049195601064	534
0	1297	365	533
0	1300	365.315905221099	534
0	1301	365.315905221099	535
0	1303	367.265082529939	536
0	1304	367.265082529939	537
0	1305	367.5	536
0	1308	368.446919465006	537
0	1309	368.446919465006	538
0	1311	368.662787348664	539
0	1312	368.662787348664	540
0	1313	370	539
0	1316	370.260530740953	540
0	1317	370.260530740953	541
0	1319	371.42832269558	542
0	1320	371.42832269558	543
0	1321	372.5	542
0	1324	372.734391188584	543
0	1325	372.734391188584	544
0	1327	374.25450534828	545
0	1328	374.25450534828	546
0	1329	375	545
0	1332	375.571990482668	546
0	1333	375.571990482668	547
0	1335	376.525257854661	548
0	1336	376.525257854661	549
0	1337	377.5	548
0	1340	378.696172720524	549
0	1341	378.696172720524	550
0	1343	379.77025286482	551
0	1344	379.77025286482	552
0	1345	380	551
0	1348	380.734913395951	552
0	1349	380.734913395951	553
0	1351	382.217787715728	554
0	1352	382.217787715728	555
0	1353	382.5	554
0	1356	383.634109855667	555
0	1357	383.634109855667	556
0	1359	383.771739600495	557
0	1360	383.771739600495	558
0	1362	384.45679360287	559
0	1363	384.45679360287	560
0	1364	385	559
0	1367	386.811327685444	560
0	1368	386.811327685444	561
0	1369	387.5	560
0	1372	387.500832395495	561
0	1373	387.500832395495	562
0	1375	388.684341246101	563
0	1376	388.684341246101	564
0	1378	389.862906758848	565
0	1379	389.862906758848	566
0	1380	390	565
0	1383	390.239145528496	566
0	1384	390.239145528496	567
0	1386	391.331174468338	568
0	1387	391.331174468338	569
0	1389	392.057191923091	570
0	1390	392.057191923091	571
0	1391	392.5	570
0	1394	393.017475132509	571
0	1395	393.017475132509	572
0	1397	394.751056058804	573
0	1398	394.751056058804	574
0	1399	395	573
0	1402	395.760033576307	574
0	1403	395.760033576307	575
0	1405	396.326474581017	576
0	1406	396.326474581017	577
0	1407	397.5	576
0	1410	398.008157449907	577
0	1411	398.008157449907	578
0	1413	398.847748456397	579
0	1414	398.847748456397	580
0	1415	400	579
0	1418	400.29268034564	580
0	1419	400.29268034564	581
0	1421	401.890052587247	582
0	1422	401.890052587247	583
0	1424	401.972761935684	584
0	1425	401.972761935684	585
0	1426	402.5	584
0	1429	403.054968147362	585
0	1430	403.054968147362	586
0	1432	403.507082743193	587
0	1433	403.507082743193	588
0	1435	404.3241235946	589
0	1436	404.3241235946	590
0	1437	405	589
0	1440	405.148568687623	590
0	1441	405.148568687623	591
0	1443	406.407711811163	592
0	1444	406.407711811163	593
0	1445	407.5	592
0	1448	409.251008913589	593
0	1449	409.251008913589	594
0	1450	410	593
0	1453	410.546693425703	594
0	1454	410.546693425703	595
0	1456	412.243469706842	596
0	1457	412.243469706842	597
0	1458	412.5	596
0	1461	413.600371003973	597
0	1462	413.600371003973	598
0	1464	414.09132211597	599
0	1465	414.09132211597	600
0	1466	415	599
0	1469	415.170203307306	600
0	1470	415.170203307306	601
0	1472	415.805509682964	602
0	1473	415.805509682964	603
0	1475	416.814036114626	604
0	1476	416.814036114626	605
0	1477	417.5	604
0	1480	418.260997562544	605
0	1481	418.260997562544	606
0	1483	419.714609101003	607
0	1484	419.714609101003	608
0	1485	420	607
0	1488	420.788846684492	608
0	1489	420.788846684492	609
0	1491	421.101289235298	610
0	1492	421.101289235298	611
0	1494	422.437540186971	612
0	1495	422.437540186971	613
0	1496	422.5	612
0	1499	423.383594086615	613
0	1500	423.383594086615	614
0	1502	424.148586673141	615
0	1503	424.148586673141	616
0	1505	424.775654735858	617
0	1506	424.775654735858	618
0	1507	425	617
0	1510	426.088585820556	618
0	1511	426.088585820556	619
0	1513	427.473972491488	620
0	1514	427.473972491488	621
0	1515	427.5	620
0	1518	427.57891646172	621
0	1519	427.57891646172	622
0	1521	428.860539649266	623
0	1522	428.860539649266	624
0	1524	429.269514514422	625
0	1525	429.269514514422	626
0	1526	430	625
0	1529	431.168410474206	626
0	1530	431.168410474206	627
0	1532	431.685735827796	628
0	1533	431.685735827796	629
0	1535	432.179598844401	630
0	1536	432.179598844401	631
0	1537	432.5	630
0	1540	433.571426687918	631
0	1541	433.571426687918	632
0	1542	435	631
0	1545	435.17001623771	632
0	1546	435.17001623771	633
0	1548	436.941809621357	634
0	1549	436.941809621357	635
0	1550	437.5	634
0	1553	437.946831904414	635
0	1554	437.946831904414	636
0	1556	439.030614396116	637
0	1557	439.030614396116	638
0	1558	440	637
0	1561	440.265967143815	638
0	1562	440.265967143815	639
0	1564	440.965082780037	640
0	1565	440.965082780037	641
0	1567	442.004853613883	642
0	1568	442.004853613883	643
0	1569	442.5	642
0	1572	443.652632676868	643
0	1573	443.652632676868	644
0	1575	444.828844292414	645
0	1576	444.828844292414	646
0	1577	445	645
0	1580	447.021182599181	646
0	1581	447.021182599181	647
0	1582	447.5	646
0	1585	448.283237707671	647
0	1586	448.283237707671	648
0	1588	449.575198402874	649
0	1589	449.575198402874	650
0	1590	450	649
0	1593	450.751499215187	650
0	1594	450.751499215187	651
0	1596	452.14708749268	652
0	1597	452.14708749268	653
0	1598	452.5	652
0	1601	453.22407512573	653
0	1602	453.22407512573	654
0	1604	453.618617403133	655
0	1605	453.618617403133	656
0	1606	455	655
0	1609	455.039031665606	656
0	1610	455.039031665606	657
0	1612	456.536831276944	658
0	1613	456.536831276944	659
0	1615	456.936559852611	660
0	1616	456.936559852611	661
0	1617	457.5	660
0	1620	458.779707660192	661
0	1621	458.779707660192	662
0	1623	459.771623416303	663
0	1624	459.771623416303	664
0	1625	460	663
0	1628	460.252602819152	664
0	1629	460.252602819152	665
0	1631	461.039514176937	666
0	1632	461.039514176937	667
0	1633	462.5	666
0	1636	462.577011941646	667
0	1637	462.577011941646	668
0	1639	463.057287245307	669
0	1640	463.057287245307	670
0	1642	464.897449010605	671
0	1643	464.897449010605	672
0	1644	465	671
0	1647	465.826959101658	672
0	1648	465.826959101658	673
0	1650	467.344382048045	674
0	1651	467.344382048045	675
0	1652	467.5	674
0	1655	468.389863743207	675
0	1656	468.389863743207	676
0	1657	470	675
0	1660	470.065876749735	676
0	1661	470.065876749735	677
0	1663	470.549803652206	678
0	1664	470.549803652206	679
0	1666	470.891827314069	680
0	1667	470.891827314069	681
0	1669	471.307738695714	682
0	1670	471.307738695714	683
0	1671	472.5	682
0	1674	472.755064906123	683
0	1675	472.755064906123	684
0	1677	473.593847620134	685
0	1678	473.593847620134	686
0	1680	473.923533459671	687
0	1681	473.923533459671	688
0	1683	474.751753829626	689
0	1684	474.751753829626	690
0	1685	475	689
0	1688	475.444136184798	690
0	1689	475.444136184798	691
0	1690	477.5	690
0	1693	478.167009137774	691
0	1694	478.167009137774	692
0	1696	478.891930069569	693
0	1697	478.891930069569	694
0	1698	480	693
0	1701	480.262858650693	694
0	1702	480.262858650693	695
0	1704	481.889015087345	696
0	1705	481.889015087345	697
0	1706	482.5	696
0	1709	482.558563148087	697
0	1710	482.558563148087	698
0	1712	482.932796404287	699
0	1713	482.932796404287	700
0	1715	483.612019729389	701
0	1716	483.612019729389	702
0	1718	484.499433569171	703
0	1719	484.499433569171	704
0	1720	485	703
0	1723	487.018900328864	704
0	1724	487.018900328864	705
0	1725	487.5	704
0	1728	487.924124889885	705
0	1729	487.924124889885	706
0	1731	488.634101289557	707
0	1732	488.634101289557	708
0	1734	489.548069956007	709
0	1735	489.548069956007	710
0	1736	490	709
0	1739	491.824357918072	710
0	1740	491.824357918072	711
0	1741	492.5	710
0	1744	492.922887287537	711
0	1745	492.922887287537	712
0	1747	493.631889407869	713
0	1748	493.631889407869	714
0	1749	495	713
0	1752	496.237592359268	714
0	1753	496.237592359268	715
0	1754	497.5	714
0	1757	497.964156709496	715
0	1758	497.964156709496	716
0	1760	498.933348134213	717
0	1761	498.933348134213	718
0	1763	499.488919077565	719
0	1764	499.488919077565	720
0	1765	500	719
0	1768	500.056245688466	720
0	1769	500.056245688466	721
0	1771	500.840463875986	722
0	1772	500.840463875986	723
0	1774	501.546470202995	724
0	1775	501.546470202995	725
0	1777	502.127976064748	726
0	1778	502.127976064748	727
0	1779	502.5	726
0	1782	502.779749734461	727
0	1783	502.779749734461	728
0	1785	503.718115590951	729
0	1786	503.718115590951	730
0	1787	505	729
0	1790	505.110576950833	730
0	1791	505.110576950833	731
0	1793	505.429179709995	732
0	1794	505.429179709995	733
0	1796	506.921765905784	734
0	1797	506.921765905784	735
0	1798	507.5	734
0	1801	507.854923257843	735
0	1802	507.854923257843	736
0	1804	509.482608103199	737
0	1805	509.482608103199	738
0	1806	510	737
0	1809	510.557590639462	738
0	1810	510.557590639462	739
0	1812	512.259499014993	740