version 3
run MMc-38-20221127-11:38:42-21264
attr configname MMc
attr datetime 20221127-11:38:42
attr datetimef 20221127-113842
attr experiment MMc
attr inifile omnetpp.ini
attr iterationvars "$mean=uniform(0.5s, 1.5s), $dev=0.5*(uniform(0.5s, 1.5s)), $time=2.5, $num=1, $0=47853, $1=24674, $2=96433"
attr iterationvarsd mean=uniform(0.5s,_1.5s)/dev=0.5#2a(uniform(0.5s,_1.5s))/time=2.5/num=1/47853/24674/96433
attr iterationvarsf mean=uniform(0.5s,_1.5s),dev=0.5#2a(uniform(0.5s,_1.5s)),time=2.5,num=1,47853,24674,96433-
attr measurement "$mean=uniform(0.5s, 1.5s), $dev=0.5*(uniform(0.5s, 1.5s)), $time=2.5, $num=1, $0=47853, $1=24674, $2=96433"
attr network MMc
attr processid 21264
attr repetition 2
attr replication #2
attr resultdir results
attr runnumber 38
attr seedset 38
itervar dev "0.5*(uniform(0.5s, 1.5s))"
itervar mean "uniform(0.5s, 1.5s)"
itervar num 1
itervar time 2.5
config description "MMc module"
config network MMc
config MMc.source.interArrivalTime "truncnormal(uniform(0.5s, 1.5s), 0.5*(uniform(0.5s, 1.5s)))"
config MMc.mmc.serviceTime 2.5s
config MMc.mmc.c 1
config MMc.mmc.capacity 10000
config record-eventlog false
config **.scalar-recording true
config **.vector-recording true
config repeat 4
config seed-1-mt 47853
config seed-2-mt 24674
config seed-3-mt 96433
config output-vector-file MMc-1-2.5-results/2.vec
config output-scalar-file MMc-1-2.5-results/2.sca

vector 0 MMc.mmc queueLength:vector ETV
attr interpolationmode none
attr recordingmode vector
attr title "queue length"
vector 1 MMc.mmc util:vector ETV
attr interpolationmode none
attr recordingmode vector
attr title resources
0	0	0	0
0	3	10	1
0	5	12.068173283563	2
0	6	12.068173283563	3
0	7	12.5	2
0	10	12.623310712919	3
0	11	12.623310712919	4
0	13	12.809298440628	5
0	14	12.809298440628	6
0	16	13.721988874332	7
0	17	13.721988874332	8
0	19	14.568708620072	9
0	20	14.568708620072	10
0	22	14.917402547504	11
0	23	14.917402547504	12
0	24	15	11
0	27	15.145536712442	12
0	28	15.145536712442	13
0	30	16.207785213714	14
0	31	16.207785213714	15
0	33	17.457619774196	16
0	34	17.457619774196	17
0	35	17.5	16
0	38	17.62656452523	17
0	39	17.62656452523	18
0	40	20	17
0	43	20.024405494865	18
0	44	20.024405494865	19
0	46	21.286891506005	20
0	47	21.286891506005	21
0	48	22.5	20
0	51	24.014035891392	21
0	52	24.014035891392	22
0	53	25	21
0	56	25.426891405477	22
0	57	25.426891405477	23
0	59	26.24708008551	24
0	60	26.24708008551	25
0	62	26.505348029283	26
0	63	26.505348029283	27
0	64	27.5	26
0	67	27.866802511078	27
0	68	27.866802511078	28
0	70	28.420589045233	29
0	71	28.420589045233	30
0	73	29.565968112436	31
0	74	29.565968112436	32
0	75	30	31
0	78	30.567240110428	32
0	79	30.567240110428	33
0	81	31.876169617349	34
0	82	31.876169617349	35
0	83	32.5	34
0	86	33.501020418074	35
0	87	33.501020418074	36
0	89	34.300072927608	37
0	90	34.300072927608	38
0	91	35	37
0	94	35.390785885218	38
0	95	35.390785885218	39
0	97	36.611101462835	40
0	98	36.611101462835	41
0	99	37.5	40
0	102	37.618752589949	41
0	103	37.618752589949	42
0	105	39.093602195678	43
0	106	39.093602195678	44
0	108	39.551462143511	45
0	109	39.551462143511	46
0	110	40	45
0	113	40.806589048933	46
0	114	40.806589048933	47
0	116	42.409448415802	48
0	117	42.409448415802	49
0	118	42.5	48
0	121	44.129701052285	49
0	122	44.129701052285	50
0	123	45	49
0	126	46.471555262918	50
0	127	46.471555262918	51
0	128	47.5	50
0	131	48.170226999717	51
0	132	48.170226999717	52
0	134	49.811933607636	53
0	135	49.811933607636	54
0	136	50	53
0	139	51.569190155046	54
0	140	51.569190155046	55
0	142	52.429492594568	56
0	143	52.429492594568	57
0	144	52.5	56
0	147	53.818408448914	57
0	148	53.818408448914	58
0	150	54.868014706357	59
0	151	54.868014706357	60
0	152	55	59
0	155	57.245276229771	60
0	156	57.245276229771	61
0	157	57.5	60
0	160	58.803469265886	61
0	161	58.803469265886	62
0	162	60	61
0	165	60.090852418614	62
0	166	60.090852418614	63
0	168	60.306337277405	64
0	169	60.306337277405	65
0	171	60.842238010832	66
0	172	60.842238010832	67
0	174	61.419843723653	68
0	175	61.419843723653	69
0	176	62.5	68
0	179	63.178282020719	69
0	180	63.178282020719	70
0	182	64.551312427106	71
0	183	64.551312427106	72
0	184	65	71
0	187	66.152741136176	72
0	188	66.152741136176	73
0	190	67.491709883349	74
0	191	67.491709883349	75
0	192	67.5	74
0	195	68.399105230832	75
0	196	68.399105230832	76
0	198	68.972286241474	77
0	199	68.972286241474	78
0	201	69.596438525407	79
0	202	69.596438525407	80
0	203	70	79
0	206	70.62347832439	80
0	207	70.62347832439	81
0	209	71.176864868839	82
0	210	71.176864868839	83
0	212	72.196506279798	84
0	213	72.196506279798	85
0	214	72.5	84
0	217	73.872278147336	85
0	218	73.872278147336	86
0	220	74.385609576661	87
0	221	74.385609576661	88
0	222	75	87
0	225	75.665209488051	88
0	226	75.665209488051	89
0	228	77.180620816019	90
0	229	77.180620816019	91
0	230	77.5	90
0	233	79.292132356361	91
0	234	79.292132356361	92
0	236	79.891681977922	93
0	237	79.891681977922	94
0	238	80	93
0	241	80.80461803257	94
0	242	80.80461803257	95
0	244	81.472008081452	96
0	245	81.472008081452	97
0	247	82.051911786166	98
0	248	82.051911786166	99
0	250	82.369253612782	100
0	251	82.369253612782	101
0	252	82.5	100
0	255	83.749486201354	101
0	256	83.749486201354	102
0	257	85	101
0	260	85.350560826563	102
0	261	85.350560826563	103
0	263	87.355145856621	104
0	264	87.355145856621	105
0	265	87.5	104
0	268	88.705058780624	105
0	269	88.705058780624	106
0	271	89.352165573188	107
0	272	89.352165573188	108
0	273	90	107
0	276	91.264437627482	108
0	277	91.264437627482	109
0	279	91.894773811037	110
0	280	91.894773811037	111
0	281	92.5	110
0	284	94.096689059447	111
0	285	94.096689059447	112
0	286	95	111
0	289	95.243742950653	112
0	290	95.243742950653	113
0	292	96.215145725339	114
0	293	96.215145725339	115
0	295	97.056286717224	116
0	296	97.056286717224	117
0	297	97.5	116
0	300	97.827295974592	117
0	301	97.827295974592	118
0	303	98.948919797649	119
0	304	98.948919797649	120
0	305	100	119
0	308	100.675960716882	120
0	309	100.675960716882	121
0	311	101.128779764248	122
0	312	101.128779764248	123
0	313	102.5	122
0	316	103.047868054711	123
0	317	103.047868054711	124
0	319	103.601952556498	125
0	320	103.601952556498	126
0	322	104.31165324434	127
0	323	104.31165324434	128
0	324	105	127
0	327	105.479278289792	128
0	328	105.479278289792	129
0	330	106.039825087144	130
0	331	106.039825087144	131
0	333	107.130612815409	132
0	334	107.130612815409	133
0	335	107.5	132
0	338	107.693413578766	133
0	339	107.693413578766	134
0	341	108.630756125369	135
0	342	108.630756125369	136
0	343	110	135
0	346	110.182421448819	136
0	347	110.182421448819	137
0	349	111.377469199157	138
0	350	111.377469199157	139
0	352	112.426834937464	140
0	353	112.426834937464	141
0	354	112.5	140
0	357	113.457141005043	141
0	358	113.457141005043	142
0	360	114.272396957789	143
0	361	114.272396957789	144
0	362	115	143
0	365	116.178491750746	144
0	366	116.178491750746	145
0	368	117.028990109059	146
0	369	117.028990109059	147
0	370	117.5	146
0	373	118.885413204208	147
0	374	118.885413204208	148
0	375	120	147
0	378	120.454962188848	148
0	379	120.454962188848	149
0	381	121.443781441379	150
0	382	121.443781441379	151
0	383	122.5	150
0	386	122.800148512586	151
0	387	122.800148512586	152
0	389	124.227784958342	153
0	390	124.227784958342	154
0	391	125	153
0	394	125.590786976255	154
0	395	125.590786976255	155
0	397	127.118316664332	156
0	398	127.118316664332	157
0	399	127.5	156
0	402	128.369467011282	157
0	403	128.369467011282	158
0	405	129.497157680341	159
0	406	129.497157680341	160
0	407	130	159
0	410	131.316127668117	160
0	411	131.316127668117	161
0	413	131.781539969889	162
0	414	131.781539969889	163
0	416	132.448565236964	164
0	417	132.448565236964	165
0	418	132.5	164
0	421	134.577452571624	165
0	422	134.577452571624	166
0	423	135	165
0	426	135.565508048716	166
0	427	135.565508048716	167
0	428	137.5	166
0	431	137.598411663731	167
0	432	137.598411663731	168
0	433	140	167
0	436	140.150000739059	168
0	437	140.150000739059	169
0	439	140.563405613934	170
0	440	140.563405613934	171
0	442	141.636150818628	172
0	443	141.636150818628	173
0	444	142.5	172
0	447	143.353915709832	173
0	448	143.353915709832	174
0	450	144.768699105267	175
0	451	144.768699105267	176
0	452	145	175
0	455	145.455433917626	176
0	456	145.455433917626	177
0	458	146.833196190186	178
0	459	146.833196190186	179
0	460	147.5	178
0	463	147.535610183685	179
0	464	147.535610183685	180
0	466	149.986453600666	181
0	467	149.986453600666	182
0	468	150	181
0	471	150.780157842367	182
0	472	150.780157842367	183
0	474	151.939753901706	184
0	475	151.939753901706	185
0	476	152.5	184
0	479	152.51302325602	185
0	480	152.51302325602	186
0	482	152.787176116229	187
0	483	152.787176116229	188
0	485	153.959493867671	189
0	486	153.959493867671	190
0	488	154.347166977353	191
0	489	154.347166977353	192
0	491	154.850516124668	193
0	492	154.850516124668	194
0	493	155	193
0	496	155.491265612551	194
0	497	155.491265612551	195
0	499	157.082468804358	196
0	500	157.082468804358	197
0	501	157.5	196
0	504	158.218472428779	197
0	505	158.218472428779	198
0	507	159.249925267638	199
0	508	159.249925267638	200
0	509	160	199
0	512	160.115029963587	200
0	513	160.115029963587	201
0	515	160.675516398874	202
0	516	160.675516398874	203
0	518	161.846753704298	204
0	519	161.846753704298	205
0	520	162.5	204
0	523	162.834352936178	205
0	524	162.834352936178	206
0	526	163.672829908017	207
0	527	163.672829908017	208
0	529	163.719979597208	209
0	530	163.719979597208	210
0	531	165	209
0	534	165.901990311999	210
0	535	165.901990311999	211
0	537	166.320985876309	212
0	538	166.320985876309	213
0	540	167.280339899222	214
0	541	167.280339899222	215
0	542	167.5	214
0	545	168.177191685217	215
0	546	168.177191685217	216
0	548	169.83258418706	217
0	549	169.83258418706	218
0	550	170	217
0	553	170.723855318263	218
0	554	170.723855318263	219
0	556	172.018071362078	220
0	557	172.018071362078	221
0	558	172.5	220
0	561	172.592037997107	221
0	562	172.592037997107	222
0	564	173.563760713089	223
0	565	173.563760713089	224
0	567	174.935799666977	225
0	568	174.935799666977	226
0	569	175	225
0	572	175.600256136358	226
0	573	175.600256136358	227
0	575	176.479229731414	228
0	576	176.479229731414	229
0	578	176.581384093075	230
0	579	176.581384093075	231
0	580	177.5	230
0	583	177.856576441843	231
0	584	177.856576441843	232
0	586	178.786634455817	233
0	587	178.786634455817	234
0	588	180	233
0	591	180.124695586156	234
0	592	180.124695586156	235
0	594	181.887787924317	236
0	595	181.887787924317	237
0	596	182.5	236
0	599	182.70066081287	237
0	600	182.70066081287	238
0	602	184.155207213539	239
0	603	184.155207213539	240
0	605	184.603128013752	241
0	606	184.603128013752	242
0	607	185	241
0	610	185.643754340514	242
0	611	185.643754340514	243
0	613	187.405127535538	244
0	614	187.405127535538	245
0	615	187.5	244
0	618	189.766695853176	245
0	619	189.766695853176	246
0	620	190	245
0	623	190.952092723311	246
0	624	190.952092723311	247
0	626	191.29585913719	248
0	627	191.29585913719	249
0	629	192.171673820369	250
0	630	192.171673820369	251
0	631	192.5	250
0	634	192.856783043484	251
0	635	192.856783043484	252
0	637	194.595730245289	253
0	638	194.595730245289	254
0	639	195	253
0	642	196.011972892163	254
0	643	196.011972892163	255
0	645	197.326082661286	256
0	646	197.326082661286	257
0	647	197.5	256
0	650	199.205857316813	257
0	651	199.205857316813	258
0	652	200	257
0	655	200.209141650911	258
0	656	200.209141650911	259
0	658	200.956758992925	260
0	659	200.956758992925	261
0	661	201.573592820634	262
0	662	201.573592820634	263
0	664	202.212785844973	264
0	665	202.212785844973	265
0	666	202.5	264
0	669	203.708798854352	265
0	670	203.708798854352	266
0	672	204.761762073421	267
0	673	204.761762073421	268
0	675	204.870795991887	269
0	676	204.870795991887	270
0	677	205	269
0	680	205.571226982533	270
0	681	205.571226982533	271
0	682	207.5	270
0	685	207.752884444407	271
0	686	207.752884444407	272
0	688	209.298957988399	273
0	689	209.298957988399	274
0	690	210	273
0	693	210.609730486569	274
0	694	210.609730486569	275
0	696	210.865869158349	276
0	697	210.865869158349	277
0	699	212.223361842308	278
0	700	212.223361842308	279
0	701	212.5	278
0	704	213.39001533557	279
0	705	213.39001533557	280
0	707	213.936697726863	281
0	708	213.936697726863	282
0	710	214.896437731633	283
0	711	214.896437731633	284
0	712	215	283
0	715	216.527638872169	284
0	716	216.527638872169	285
0	718	217.104339601863	286
0	719	217.104339601863	287
0	720	217.5	286
0	723	218.799176112683	287
0	724	218.799176112683	288
0	726	219.414615059097	289
0	727	219.414615059097	290
0	728	220	289
0	731	220.783237509239	290
0	732	220.783237509239	291
0	734	221.218892792077	292
0	735	221.218892792077	293
0	736	222.5	292
0	739	223.261805320075	293
0	740	223.261805320075	294
0	742	224.063246527494	295
0	743	224.063246527494	296
0	744	225	295
0	747	225.075625329656	296
0	748	225.075625329656	297
0	750	226.146131026293	298
0	751	226.146131026293	299
0	753	227.271278335156	300
0	754	227.271278335156	301
0	755	227.5	300
0	758	227.575462749948	301
0	759	227.575462749948	302
0	761	228.435651176856	303
0	762	228.435651176856	304
0	763	230	303
0	766	230.294255968139	304
0	767	230.294255968139	305
0	769	231.677605553633	306
0	770	231.677605553633	307
0	771	232.5	306
0	774	233.240915698514	307
0	775	233.240915698514	308
0	777	233.712982808821	309
0	778	233.712982808821	310
0	779	235	309
0	782	235.101434237638	310
0	783	235.101434237638	311
0	785	236.429614752146	312
0	786	236.429614752146	313
0	787	237.5	312
0	790	237.587203569854	313
0	791	237.587203569854	314
0	793	238.763676634901	315
0	794	238.763676634901	316
0	795	240	315
0	798	240.373473587515	316
0	799	240.373473587515	317
0	801	241.177766532879	318
0	802	241.177766532879	319
0	804	241.725934837524	320
0	805	241.725934837524	321
0	806	242.5	320
0	809	244.156301090053	321
0	810	244.156301090053	322
0	811	245	321
0	814	245.005317777894	322
0	815	245.005317777894	323
0	817	245.133958553078	324
0	818	245.133958553078	325
0	820	246.42448595803	326
0	821	246.42448595803	327
0	822	247.5	326
0	825	247.504754913267	327
0	826	247.504754913267	328
0	828	248.043048238866	329
0	829	248.043048238866	330
0	831	248.988677612365	331
0	832	248.988677612365	332
0	833	250	331
0	836	250.124028106583	332
0	837	250.124028106583	333
0	839	250.980500614214	334
0	840	250.980500614214	335
0	842	252.431665034165	336
0	843	252.431665034165	337
0	844	252.5	336
0	847	252.677812334531	337
0	848	252.677812334531	338
0	850	253.469782445719	339
0	851	253.469782445719	340
0	853	253.869928689609	341
0	854	253.869928689609	342
0	856	254.992894304913	343
0	857	254.992894304913	344
0	858	255	343
0	861	257.095473692798	344
0	862	257.095473692798	345
0	863	257.5	344
0	866	259.502213186773	345
0	867	259.502213186773	346
0	868	260	345
0	871	260.429577305058	346
0	872	260.429577305058	347
0	874	260.522734652511	348
0	875	260.522734652511	349
0	877	261.024116847456	350
0	878	261.024116847456	351
0	879	262.5	350
0	882	263.04717618346	351
0	883	263.04717618346	352
0	885	264.390263923461	353
0	886	264.390263923461	354
0	887	265	353
0	890	265.916041434762	354
0	891	265.916041434762	355
0	893	266.055340107329	356
0	894	266.055340107329	357
0	895	267.5	356
0	898	267.831308186871	357
0	899	267.831308186871	358
0	901	269.451314494787	359
0	902	269.451314494787	360
0	904	269.735249190555	361
0	905	269.735249190555	362
0	906	270	361
0	909	270.851940210786	362
0	910	270.851940210786	363
0	912	271.747831737547	364
0	913	271.747831737547	365
0	914	272.5	364
0	917	272.819984744015	365
0	918	272.819984744015	366
0	920	273.56705857527	367
0	921	273.56705857527	368
0	923	274.351469167257	369
0	924	274.351469167257	370
0	926	274.58836443803	371
0	927	274.58836443803	372
0	928	275	371
0	931	275.9958366948	372
0	932	275.9958366948	373
0	934	277.330992732296	374
0	935	277.330992732296	375
0	936	277.5	374
0	939	277.547369343374	375
0	940	277.547369343374	376
0	942	279.437194615626	377
0	943	279.437194615626	378
0	945	279.833181433183	379
0	946	279.833181433183	380
0	947	280	379
0	950	280.525767263119	380
0	951	280.525767263119	381
0	953	281.610347069608	382
0	954	281.610347069608	383
0	956	281.867177175655	384
0	957	281.867177175655	385
0	958	282.5	384
0	961	282.576812226638	385
0	962	282.576812226638	386
0	964	282.753567741712	387
0	965	282.753567741712	388
0	967	282.76249030229	389
0	968	282.76249030229	390
0	970	283.715310621108	391
0	971	283.715310621108	392
0	973	284.264383115572	393
0	974	284.264383115572	394
0	975	285	393
0	978	285.39257853583	394
0	979	285.39257853583	395
0	981	286.762323583481	396
0	982	286.762323583481	397
0	984	286.976516076794	398
0	985	286.976516076794	399
0	986	287.5	398
0	989	288.449102097556	399
0	990	288.449102097556	400
0	992	288.641395823371	401
0	993	288.641395823371	402
0	995	289.903348395283	403
0	996	289.903348395283	404
0	997	290	403
0	1000	290.527313477753	404
0	1001	290.527313477753	405
0	1003	292.263133702608	406
0	1004	292.263133702608	407
0	1005	292.5	406
0	1008	293.739265937995	407
0	1009	293.739265937995	408
0	1011	294.787717033531	409
0	1012	294.787717033531	410
0	1013	295	409
0	1016	295.5873354815	410
0	1017	295.5873354815	411
0	1019	296.190692883983	412
0	1020	296.190692883983	413
0	1021	297.5	412
0	1024	298.383252549585	413
0	1025	298.383252549585	414
0	1026	300	413
0	1029	300.527215485232	414
0	1030	300.527215485232	415
0	1032	301.186550580176	416
0	1033	301.186550580176	417
0	1035	302.382303223467	418
0	1036	302.382303223467	419
0	1037	302.5	418
0	1040	303.29518388268	419
0	1041	303.29518388268	420
0	1043	304.812266590502	421
0	1044	304.812266590502	422
0	1045	305	421
0	1048	305.564791016343	422
0	1049	305.564791016343	423
0	1051	306.443200256719	424
0	1052	306.443200256719	425
0	1053	307.5	424
0	1056	308.312855209115	425
0	1057	308.312855209115	426
0	1058	310	425
0	1061	311.007313537833	426
0	1062	311.007313537833	427
0	1064	312.373570977863	428
0	1065	312.373570977863	429
0	1066	312.5	428
0	1069	314.582028060509	429
0	1070	314.582028060509	430
0	1071	315	429
0	1074	315.362473933055	430
0	1075	315.362473933055	431
0	1077	316.593381030814	432
0	1078	316.593381030814	433
0	1080	317.296570249954	434
0	1081	317.296570249954	435
0	1082	317.5	434
0	1085	318.112621495493	435
0	1086	318.112621495493	436
0	1088	319.003692500327	437
0	1089	319.003692500327	438
0	1091	319.455209911765	439
0	1092	319.455209911765	440
0	1093	320	439
0	1096	320.263662841005	440
0	1097	320.263662841005	441
0	1099	321.088772943589	442
0	1100	321.088772943589	443
0	1102	321.847811313899	444
0	1103	321.847811313899	445
0	1104	322.5	444
0	1107	322.58838309067	445
0	1108	322.58838309067	446
0	1109	325	445
0	1112	325.7916315466	446
0	1113	325.7916315466	447
0	1115	326.620628185635	448
0	1116	326.620628185635	449
0	1117	327.5	448
0	1120	328.193604858357	449
0	1121	328.193604858357	450
0	1123	329.048598139453	451
0	1124	329.048598139453	452
0	1126	329.941969931419	453
0	1127	329.941969931419	454
0	1128	330	453
0	1131	330.072733603973	454
0	1132	330.072733603973	455
0	1134	331.705303917747	456
0	1135	331.705303917747	457
0	1136	332.5	456
0	1139	333.569422795125	457
0	1140	333.569422795125	458
0	1142	334.235540219648	459
0	1143	334.235540219648	460
0	1144	335	459
0	1147	335.880671827032	460
0	1148	335.880671827032	461
0	1150	337.330354640462	462
0	1151	337.330354640462	463
0	1152	337.5	462
0	1155	339.207985946394	463
0	1156	339.207985946394	464
0	1158	339.754328874311	465
0	1159	339.754328874311	466
0	1160	340	465
0	1163	340.897569450936	466
0	1164	340.897569450936	467
0	1165	342.5	466
0	1168	343.196688728069	467
0	1169	343.196688728069	468
0	1171	344.609467581303	469
0	1172	344.609467581303	470
0	1173	345	469
0	1176	345.662210399288	470
0	1177	345.662210399288	471
0	1179	347.039669667982	472
0	1180	347.039669667982	473
0	1182	347.180737634401	474
0	1183	347.180737634401	475
0	1184	347.5	474
0	1187	349.02686289725	475
0	1188	349.02686289725	476
0	1189	350	475
0	1192	350.238645450276	476
0	1193	350.238645450276	477
0	1195	350.845923376738	478
0	1196	350.845923376738	479
0	1198	351.562655342491	480
0	1199	351.562655342491	481
0	1201	351.637925462402	482
0	1202	351.637925462402	483
0	1203	352.5	482
0	1206	352.889173339058	483
0	1207	352.889173339058	484
0	1209	354.715123023877	485
0	1210	354.715123023877	486
0	1211	355	485
0	1214	356.172271748732	486
0	1215	356.172271748732	487
0	1217	357.443082308151	488
0	1218	357.443082308151	489
0	1219	357.5	488
0	1222	357.930809437132	489
0	1223	357.930809437132	490
0	1225	359.130323293383	491
0	1226	359.130323293383	492
0	1227	360	491
0	1230	360.863717511401	492
0	1231	360.863717511401	493
0	1233	361.853784123707	494
0	1234	361.853784123707	495
0	1235	362.5	494
0	1238	362.720581387762	495
0	1239	362.720581387762	496
0	1241	362.839717056037	497
0	1242	362.839717056037	498
0	1244	363.623406480768	499
0	1245	363.623406480768	500
0	1247	364.397639638537	501
0	1248	364.397639638537	502
0	1249	365	501
0	1252	366.293211183498	502
0	1253	366.293211183498	503
0	1255	367.181728003162	504
0	1256	367.181728003162	505
0	1257	367.5	504
0	1260	368.072637638906	505
0	1261	368.072637638906	506
0	1263	369.266529209941	507
0	1264	369.266529209941	508
0	1266	369.322638203038	509
0	1267	369.322638203038	510
0	1268	370	509
0	1271	370.510459190482	510
0	1272	370.510459190482	511
0	1274	371.45639433224	512
0	1275	371.45639433224	513
0	1276	372.5	512
0	1279	372.694193402465	513
0	1280	372.694193402465	514
0	1282	373.949153024199	515
0	1283	373.949153024199	516
0	1285	374.851494828134	517
0	1286	374.851494828134	518
0	1287	375	517
0	1290	376.325697086927	518
0	1291	376.325697086927	519
0	1293	376.455225167293	520
0	1294	376.455225167293	521
0	1296	377.005401045901	522
0	1297	377.005401045901	523
0	1298	377.5	522
0	1301	378.303957655916	523
0	1302	378.303957655916	524
0	1304	379.165044423495	525
0	1305	379.165044423495	526
0	1306	380	525
0	1309	380.239759290004	526
0	1310	380.239759290004	527
0	1312	381.732397351164	528
0	1313	381.732397351164	529
0	1315	382.355356638807	530
0	1316	382.355356638807	531
0	1317	382.5	530
0	1320	383.119428572993	531
0	1321	383.119428572993	532
0	1323	383.853771671775	533
0	1324	383.853771671775	534
0	1326	384.028394188164	535
0	1327	384.028394188164	536
0	1329	384.59725046407	537
0	1330	384.59725046407	538
0	1331	385	537
0	1334	385.133149053936	538
0	1335	385.133149053936	539
0	1337	386.264676766952	540
0	1338	386.264676766952	541
0	1340	387.332600733064	542
0	1341	387.332600733064	543
0	1342	387.5	542
0	1345	388.231370820262	543
0	1346	388.231370820262	544
0	1348	389.605650496093	545
0	1349	389.605650496093	546
0	1350	390	545
0	1353	390.812631329649	546
0	1354	390.812631329649	547
0	1356	391.217436279691	548
0	1357	391.217436279691	549
0	1359	391.850341889811	550
0	1360	391.850341889811	551
0	1361	392.5	550
0	1364	393.08027917509	551
0	1365	393.08027917509	552
0	1367	393.634768873908	553
0	1368	393.634768873908	554
0	1370	394.811266748279	555
0	1371	394.811266748279	556
0	1372	395	555
0	1375	396.086063892015	556
0	1376	396.086063892015	557
0	1378	397.464767539903	558
0	1379	397.464767539903	559
0	1380	397.5	558
0	1383	398.223293237376	559
0	1384	398.223293237376	560
0	1386	399.871177486843	561
0	1387	399.871177486843	562
0	1388	400	561
0	1391	400.706637971459	562
0	1392	400.706637971459	563
0	1394	402.268362027312	564
0	1395	402.268362027312	565
0	1396	402.5	564
0	1399	403.535436964511	565
0	1400	403.535436964511	566
0	1402	404.039641760068	567
0	1403	404.039641760068	568
0	1404	405	567
0	1407	405.131597291581	568
0	1408	405.131597291581	569
0	1410	405.401289077334	570
0	1411	405.401289077334	571
0	1413	406.007606278046	572
0	1414	406.007606278046	573
0	1416	406.908988101027	574
0	1417	406.908988101027	575
0	1418	407.5	574
0	1421	409.333868058065	575
0	1422	409.333868058065	576
0	1423	410	575
0	1426	410.487298193124	576
0	1427	410.487298193124	577
0	1429	411.666780227509	578
0	1430	411.666780227509	579
0	1431	412.5	578
0	1434	412.892524458179	579
0	1435	412.892524458179	580
0	1437	413.918212703196	581
0	1438	413.918212703196	582
0	1440	414.869832824377	583
0	1441	414.869832824377	584
0	1442	415	583
0	1445	415.69938014375	584
0	1446	415.69938014375	585
0	1447	417.5	584
0	1450	417.870505047798	585
0	1451	417.870505047798	586
0	1453	418.428519984622	587
0	1454	418.428519984622	588
0	1456	419.86442250526	589
0	1457	419.86442250526	590
0	1458	420	589
0	1461	420.832089471742	590
0	1462	420.832089471742	591
0	1464	422.107309228684	592
0	1465	422.107309228684	593
0	1466	422.5	592
0	1469	423.485686363809	593
0	1470	423.485686363809	594
0	1471	425	593
0	1474	425.207489428998	594
0	1475	425.207489428998	595
0	1477	426.955083823616	596
0	1478	426.955083823616	597
0	1480	427.065848478378	598
0	1481	427.065848478378	599
0	1482	427.5	598
0	1485	428.252466172944	599
0	1486	428.252466172944	600
0	1488	428.992959618275	601
0	1489	428.992959618275	602
0	1491	429.493978913314	603
0	1492	429.493978913314	604
0	1493	430	603
0	1496	430.998932660488	604
0	1497	430.998932660488	605
0	1499	431.744716237837	606
0	1500	431.744716237837	607
0	1501	432.5	606
0	1504	432.676606302272	607
0	1505	432.676606302272	608
0	1507	434.291571536911	609
0	1508	434.291571536911	610
0	1510	434.643036538334	611
0	1511	434.643036538334	612
0	1512	435	611
0	1515	436.024482198188	612
0	1516	436.024482198188	613
0	1518	437.04206819374	614
0	1519	437.04206819374	615
0	1520	437.5	614
0	1523	437.749921178142	615
0	1524	437.749921178142	616
0	1526	438.954795021107	617
0	1527	438.954795021107	618
0	1528	440	617
0	1531	440.612787145922	618
0	1532	440.612787145922	619
0	1534	442.19628655421	620
0	1535	442.19628655421	621
0	1537	442.445518623034	622
0	1538	442.445518623034	623
0	1539	442.5	622
0	1542	443.261641619172	623
0	1543	443.261641619172	624
0	1545	444.656712454241	625
0	1546	444.656712454241	626
0	1547	445	625
0	1550	446.42126943112	626
0	1551	446.42126943112	627
0	1552	447.5	626
0	1555	447.76671549562	627
0	1556	447.76671549562	628
0	1558	448.371732957076	629
0	1559	448.371732957076	630
0	1561	449.387747817228	631
0	1562	449.387747817228	632
0	1563	450	631
0	1566	450.591005403838	632
0	1567	450.591005403838	633
0	1569	451.85575957926	634
0	1570	451.85575957926	635
0	1571	452.5	634
0	1574	453.429510375842	635
0	1575	453.429510375842	636
0	1577	454.581796503534	637
0	1578	454.581796503534	638
0	1579	455	637
0	1582	455.438963560053	638
0	1583	455.438963560053	639
0	1585	456.629742209216	640
0	1586	456.629742209216	641
0	1587	457.5	640
0	1590	457.676553688636	641
0	1591	457.676553688636	642
0	1593	457.879978332126	643
0	1594	457.879978332126	644
0	1596	458.606369900919	645
0	1597	458.606369900919	646
0	1598	460	645
0	1601	460.214597641209	646
0	1602	460.214597641209	647
0	1604	461.329190891073	648
0	1605	461.329190891073	649
0	1606	462.5	648
0	1609	462.964394085535	649
0	1610	462.964394085535	650
0	1612	464.714234284273	651
0	1613	464.714234284273	652
0	1614	465	651
0	1617	465.445432067132	652
0	1618	465.445432067132	653
0	1620	466.428751710706	654
0	1621	466.428751710706	655
0	1622	467.5	654
0	1625	467.744777758308	655
0	1626	467.744777758308	656
0	1628	467.819291292872	657
0	1629	467.819291292872	658
0	1631	469.045790796007	659
0	1632	469.045790796007	660
0	1634	469.928283640544	661
0	1635	469.928283640544	662
0	1636	470	661
0	1639	470.68224338067	662
0	1640	470.68224338067	663
0	1642	472.192985551111	664
0	1643	472.192985551111	665
0	1644	472.5	664
0	1647	473.183951960721	665
0	1648	473.183951960721	666
0	1650	473.624523645138	667
0	1651	473.624523645138	668
0	1653	474.572334123859	669
0	1654	474.572334123859	670
0	1655	475	669
0	1658	475.019189010363	670
0	1659	475.019189010363	671
0	1661	476.12204491394	672
0	1662	476.12204491394	673
0	1663	477.5	672
0	1666	477.61208972109	673
0	1667	477.61208972109	674
0	1669	479.215317776873	675
0	1670	479.215317776873	676
0	1671	480	675
0	1674	480.502602315694	676
0	1675	480.502602315694	677
0	1677	480.607350416569	678
0	1678	480.607350416569	679
0	1680	482.414621964022	680
0	1681	482.414621964022	681
0	1682	482.5	680
0	1685	483.918499190722	681
0	1686	483.918499190722	682
0	1687	485	681
0	1690	485.523521811695	682
0	1691	485.523521811695	683
0	1693	486.65498217051	684
0	1694	486.65498217051	685
0	1695	487.5	684
0	1698	488.380947619094	685
0	1699	488.380947619094	686
0	1701	489.272989930782	687
0	1702	489.272989930782	688
0	1703	490	687
0	1706	491.242901576782	688
0	1707	491.242901576782	689
0	1709	491.846564729206	690
0	1710	491.846564729206	691
0	1712	492.23484856777	692
0	1713	492.23484856777	693
0	1714	492.5	692
0	1717	492.71484071739	693
0	1718	492.71484071739	694
0	1720	494.016412752835	695
0	1721	494.016412752835	696
0	1722	495	695
0	1725	495.381134955342	696
0	1726	495.381134955342	697
0	1728	495.788392441996	698
0	1729	495.788392441996	699
0	1731	496.657095353934	700
0	1732	496.657095353934	701
0	1734	497.34252287111	702
0	1735	497.34252287111	703
0	1736	497.5	702
0	1739	498.136297597347	703
0	1740	498.136297597347	704
0	1742	498.415040225984	705
0	1743	498.415040225984	706
0	1745	498.730075460008	707
0	1746	498.730075460008	708
0	1747	500	707
0	1750	501.315422896849	708
0	1751	501.315422896849	709
0	1752	502.5	708
0	1755	502.565785818299	709
0	1756	502.565785818299	710
0	1758	503.400611632072	711
0	1759	503.400611632072	712
0	1760	505	711
0	1763	505.203464117064	712
0	1764	505.203464117064	713
0	1766	506.582362354023	714
0	1767	506.582362354023	715
0	1768	507.5	714
0	1771	507.932673156431	715
0	1772	507.932673156431	716
0	1774	509.403752152619	717
0	1775	509.403752152619	718
0	1776	510	717
0	1779	510.718829201322	718
0	1780	510.718829201322	719
0	1781	512.5	718
0	1784	512.512215669278	719
0	1785	512.512215669278	720
0	1787	513.819896051879	721
0	1788	513.819896051879	722
0	1790	514.876023369774	723
0	1791	514.876023369774	724
0	1792	515	723
0	1795	515.148539411095	724
0	1796	515.148539411095	725
0	1798	515.255854526169	726
0	1799	515.255854526169	727
0	1801	516.634230037951	728
0	1802	516.634230037951	729
0	1804	517.07213133695	730
0	1805	517.07213133695	731
0	1806	517.5	730
0	1809	518.936358292805	731
0	1810	518.936358292805	732
0	1811	520	731
0	1814	520.738463865455	732
0	1815	520.738463865455	733