version 3
run MMc-39-20221127-11:38:42-21264
attr configname MMc
attr datetime 20221127-11:38:42
attr datetimef 20221127-113842
attr experiment MMc
attr inifile omnetpp.ini
attr iterationvars "$mean=uniform(0.5s, 1.5s), $dev=0.5*(uniform(0.5s, 1.5s)), $time=2.5, $num=1, $0=33434, $1=56673, $2=23567"
attr iterationvarsd mean=uniform(0.5s,_1.5s)/dev=0.5#2a(uniform(0.5s,_1.5s))/time=2.5/num=1/33434/56673/23567
attr iterationvarsf mean=uniform(0.5s,_1.5s),dev=0.5#2a(uniform(0.5s,_1.5s)),time=2.5,num=1,33434,56673,23567-
attr measurement "$mean=uniform(0.5s, 1.5s), $dev=0.5*(uniform(0.5s, 1.5s)), $time=2.5, $num=1, $0=33434, $1=56673, $2=23567"
attr network MMc
attr processid 21264
attr repetition 3
attr replication #3
attr resultdir results
attr runnumber 39
attr seedset 39
itervar dev "0.5*(uniform(0.5s, 1.5s))"
itervar mean "uniform(0.5s, 1.5s)"
itervar num 1
itervar time 2.5
config description "MMc module"
config network MMc
config MMc.source.interArrivalTime "truncnormal(uniform(0.5s, 1.5s), 0.5*(uniform(0.5s, 1.5s)))"
config MMc.mmc.serviceTime 2.5s
config MMc.mmc.c 1
config MMc.mmc.capacity 10000
config record-eventlog false
config **.scalar-recording true
config **.vector-recording true
config repeat 4
config seed-1-mt 33434
config seed-2-mt 56673
config seed-3-mt 23567
config output-vector-file MMc-1-2.5-results/3.vec
config output-scalar-file MMc-1-2.5-results/3.sca

vector 0 MMc.mmc queueLength:vector ETV
attr interpolationmode none
attr recordingmode vector
attr title "queue length"
vector 1 MMc.mmc util:vector ETV
attr interpolationmode none
attr recordingmode vector
attr title resources
0	0	0	0
0	3	10	1
0	5	11.213266391446	2
0	6	11.213266391446	3
0	7	12.5	2
0	10	12.638565471458	3
0	11	12.638565471458	4
0	13	13.171841253525	5
0	14	13.171841253525	6
0	16	13.989085350359	7
0	17	13.989085350359	8
0	18	15	7
0	21	15.88977558938	8
0	22	15.88977558938	9
0	24	17.335429346628	10
0	25	17.335429346628	11
0	26	17.5	10
0	29	19.256130103941	11
0	30	19.256130103941	12
0	31	20	11
0	34	20.596943348169	12
0	35	20.596943348169	13
0	37	21.498751300806	14
0	38	21.498751300806	15
0	40	22.252576743314	16
0	41	22.252576743314	17
0	42	22.5	16
0	45	23.475780433315	17
0	46	23.475780433315	18
0	48	24.706688598284	19
0	49	24.706688598284	20
0	50	25	19
0	53	26.467399410074	20
0	54	26.467399410074	21
0	55	27.5	20
0	58	27.779313528738	21
0	59	27.779313528738	22
0	61	28.698033624774	23
0	62	28.698033624774	24
0	64	29.936275166928	25
0	65	29.936275166928	26
0	66	30	25
0	69	30.783353235442	26
0	70	30.783353235442	27
0	72	31.533444054747	28
0	73	31.533444054747	29
0	74	32.5	28
0	77	32.83780953709	29
0	78	32.83780953709	30
0	80	33.966882215511	31
0	81	33.966882215511	32
0	82	35	31
0	85	35.851781971259	32
0	86	35.851781971259	33
0	88	36.269690693515	34
0	89	36.269690693515	35
0	91	37.014083497302	36
0	92	37.014083497302	37
0	94	37.410528149802	38
0	95	37.410528149802	39
0	96	37.5	38
0	99	38.022176859118	39
0	100	38.022176859118	40
0	102	39.214663022466	41
0	103	39.214663022466	42
0	104	40	41
0	107	40.89168997286	42
0	108	40.89168997286	43
0	110	41.911077430523	44
0	111	41.911077430523	45
0	112	42.5	44
0	115	42.645096157827	45
0	116	42.645096157827	46
0	118	44.555953859863	47
0	119	44.555953859863	48
0	120	45	47
0	123	45.22462547712	48
0	124	45.22462547712	49
0	126	46.16209500095	50
0	127	46.16209500095	51
0	129	46.793304954572	52
0	130	46.793304954572	53
0	131	47.5	52
0	134	47.826453341586	53
0	135	47.826453341586	54
0	137	48.272013854492	55
0	138	48.272013854492	56
0	140	49.404328542371	57
0	141	49.404328542371	58
0	143	49.774252584392	59
0	144	49.774252584392	60
0	145	50	59
0	148	50.786203704961	60
0	149	50.786203704961	61
0	150	52.5	60
0	153	52.536241147289	61
0	154	52.536241147289	62
0	156	53.682001822028	63
0	157	53.682001822028	64
0	159	54.803970720626	65
0	160	54.803970720626	66
0	162	54.966897886945	67
0	163	54.966897886945	68
0	164	55	67
0	167	56.396037060639	68
0	168	56.396037060639	69
0	170	57.32492423506	70
0	171	57.32492423506	71
0	173	57.400853897159	72
0	174	57.400853897159	73
0	175	57.5	72
0	178	58.459986579663	73
0	179	58.459986579663	74
0	181	58.809702045311	75
0	182	58.809702045311	76
0	184	59.577000739009	77
0	185	59.577000739009	78
0	186	60	77
0	189	60.649172947399	78
0	190	60.649172947399	79
0	192	61.81510996476	80
0	193	61.81510996476	81
0	195	62.497146660519	82
0	196	62.497146660519	83
0	197	62.5	82
0	200	62.724373345886	83
0	201	62.724373345886	84
0	203	63.853505922593	85
0	204	63.853505922593	86
0	206	64.691029842656	87
0	207	64.691029842656	88
0	208	65	87
0	211	65.64593060708	88
0	212	65.64593060708	89
0	213	67.5	88
0	216	67.765829147231	89
0	217	67.765829147231	90
0	219	69.186868915439	91
0	220	69.186868915439	92
0	221	70	91
0	224	70.164609841817	92
0	225	70.164609841817	93
0	227	71.149415616405	94
0	228	71.149415616405	95
0	230	72.054769490827	96
0	231	72.054769490827	97
0	232	72.5	96
0	235	72.954612550066	97
0	236	72.954612550066	98
0	238	73.313905932455	99
0	239	73.313905932455	100
0	241	74.358588275132	101
0	242	74.358588275132	102
0	243	75	101
0	246	75.649311214344	102
0	247	75.649311214344	103
0	249	75.836364529287	104
0	250	75.836364529287	105
0	252	76.619893256164	106
0	253	76.619893256164	107
0	255	76.971554040578	108
0	256	76.971554040578	109
0	258	77.415736711972	110
0	259	77.415736711972	111
0	260	77.5	110
0	263	78.133143670562	111
0	264	78.133143670562	112
0	266	79.702296357277	113
0	267	79.702296357277	114
0	268	80	113
0	271	80.306047660319	114
0	272	80.306047660319	115
0	274	80.403113257143	116
0	275	80.403113257143	117
0	277	82.358044906391	118
0	278	82.358044906391	119
0	280	82.435222290872	120
0	281	82.435222290872	121
0	282	82.5	120
0	285	83.38016988002	121
0	286	83.38016988002	122
0	288	84.479536069158	123
0	289	84.479536069158	124
0	290	85	123
0	293	85.620176505851	124
0	294	85.620176505851	125
0	296	86.931554630658	126
0	297	86.931554630658	127
0	298	87.5	126
0	301	88.081340405669	127
0	302	88.081340405669	128
0	304	88.228228665746	129
0	305	88.228228665746	130
0	307	89.362585774653	131
0	308	89.362585774653	132
0	310	89.940090128478	133
0	311	89.940090128478	134
0	312	90	133
0	315	90.31348041585	134
0	316	90.31348041585	135
0	318	91.783999473183	136
0	319	91.783999473183	137
0	320	92.5	136
0	323	93.509384407626	137
0	324	93.509384407626	138
0	326	94.619932333705	139
0	327	94.619932333705	140
0	328	95	139
0	331	95.370150022832	140
0	332	95.370150022832	141
0	334	96.206616886082	142
0	335	96.206616886082	143
0	337	97.461419370347	144
0	338	97.461419370347	145
0	339	97.5	144
0	342	98.658622701985	145
0	343	98.658622701985	146
0	345	99.361747965866	147
0	346	99.361747965866	148
0	347	100	147
0	350	101.048270108534	148
0	351	101.048270108534	149
0	352	102.5	148
0	355	103.405997936822	149
0	356	103.405997936822	150
0	358	104.194525481919	151
0	359	104.194525481919	152
0	360	105	151
0	363	105.254559406978	152
0	364	105.254559406978	153
0	366	105.77169536251	154
0	367	105.77169536251	155
0	369	105.94863374097	156
0	370	105.94863374097	157
0	372	106.213129649015	158
0	373	106.213129649015	159
0	375	107.476641020607	160
0	376	107.476641020607	161
0	377	107.5	160
0	380	108.522086170376	161
0	381	108.522086170376	162
0	382	110	161
0	385	110.214258188393	162
0	386	110.214258188393	163
0	388	110.956988319657	164
0	389	110.956988319657	165
0	391	111.005964616989	166
0	392	111.005964616989	167
0	394	112.118919814273	168
0	395	112.118919814273	169
0	396	112.5	168
0	399	113.397190195413	169
0	400	113.397190195413	170
0	401	115	169
0	404	115.212302432772	170
0	405	115.212302432772	171
0	407	116.868312266801	172
0	408	116.868312266801	173
0	410	117.117749998157	174
0	411	117.117749998157	175
0	412	117.5	174
0	415	117.850662579692	175
0	416	117.850662579692	176
0	418	118.838943622707	177
0	419	118.838943622707	178
0	421	119.499473933563	179
0	422	119.499473933563	180
0	423	120	179
0	426	120.392696397752	180
0	427	120.392696397752	181
0	429	121.55287743719	182
0	430	121.55287743719	183
0	432	122.369818697735	184
0	433	122.369818697735	185
0	434	122.5	184
0	437	123.078817373506	185
0	438	123.078817373506	186
0	440	124.02552886772	187
0	441	124.02552886772	188
0	443	124.787110958105	189
0	444	124.787110958105	190
0	446	124.951815031577	191
0	447	124.951815031577	192
0	448	125	191
0	451	125.484545725744	192
0	452	125.484545725744	193
0	454	127.465461000886	194
0	455	127.465461000886	195
0	456	127.5	194
0	459	128.427803235703	195
0	460	128.427803235703	196
0	462	129.61383042672	197
0	463	129.61383042672	198
0	465	129.782869561816	199
0	466	129.782869561816	200
0	467	130	199
0	470	130.375680936059	200
0	471	130.375680936059	201
0	473	132.217425663873	202
0	474	132.217425663873	203
0	475	132.5	202
0	478	133.469154447232	203
0	479	133.469154447232	204
0	481	134.74325141722	205
0	482	134.74325141722	206
0	483	135	205
0	486	136.788998450035	206
0	487	136.788998450035	207
0	488	137.5	206
0	491	138.150871175762	207
0	492	138.150871175762	208
0	493	140	207
0	496	140.193220166775	208
0	497	140.193220166775	209
0	499	140.341950892648	210
0	500	140.341950892648	211
0	502	141.079966157363	212
0	503	141.079966157363	213
0	505	141.651312201729	214
0	506	141.651312201729	215
0	508	141.935826908334	216
0	509	141.935826908334	217
0	510	142.5	216
0	513	143.792998349464	217
0	514	143.792998349464	218
0	516	144.891346518464	219
0	517	144.891346518464	220
0	519	144.986191550887	221
0	520	144.986191550887	222
0	521	145	221
0	524	146.449107076417	222
0	525	146.449107076417	223
0	526	147.5	222
0	529	147.702310763813	223
0	530	147.702310763813	224
0	532	149.970222391621	225
0	533	149.970222391621	226
0	534	150	225
0	537	151.545344705888	226
0	538	151.545344705888	227
0	540	152.016692192872	228
0	541	152.016692192872	229
0	542	152.5	228
0	545	154.165059333745	229
0	546	154.165059333745	230
0	547	155	229
0	550	155.776123437539	230
0	551	155.776123437539	231
0	553	156.664106022476	232
0	554	156.664106022476	233
0	555	157.5	232
0	558	157.9058568594	233
0	559	157.9058568594	234
0	561	158.807574777845	235
0	562	158.807574777845	236
0	564	159.682459445085	237
0	565	159.682459445085	238
0	566	160	237
0	569	160.544290680867	238
0	570	160.544290680867	239
0	572	160.921640796776	240
0	573	160.921640796776	241
0	574	162.5	240
0	577	162.954789484651	241
0	578	162.954789484651	242
0	580	164.431997853153	243
0	581	164.431997853153	244
0	582	165	243
0	585	165.507354517901	244
0	586	165.507354517901	245
0	588	166.614050517493	246
0	589	166.614050517493	247
0	590	167.5	246
0	593	167.850293338404	247
0	594	167.850293338404	248
0	596	169.38617333697	249
0	597	169.38617333697	250
0	598	170	249
0	601	171.427564510908	250
0	602	171.427564510908	251
0	603	172.5	250
0	606	172.61752119988	251
0	607	172.61752119988	252
0	609	173.879577587917	253
0	610	173.879577587917	254
0	611	175	253
0	614	175.223437590029	254
0	615	175.223437590029	255
0	617	176.549177081361	256
0	618	176.549177081361	257
0	619	177.5	256
0	622	177.626748500696	257
0	623	177.626748500696	258
0	625	178.445317595598	259
0	626	178.445317595598	260
0	628	179.513373629293	261
0	629	179.513373629293	262
0	630	180	261
0	633	180.760901850449	262
0	634	180.760901850449	263
0	636	181.545043648447	264
0	637	181.545043648447	265
0	638	182.5	264
0	641	183.43287328706	265
0	642	183.43287328706	266
0	644	183.524760785626	267
0	645	183.524760785626	268
0	647	183.965382984645	269
0	648	183.965382984645	270
0	649	185	269
0	652	185.255509535218	270
0	653	185.255509535218	271
0	655	186.039120054801	272
0	656	186.039120054801	273
0	658	186.872440828278	274
0	659	186.872440828278	275
0	661	187.426383052075	276
0	662	187.426383052075	277
0	663	187.5	276
0	666	189.086665911892	277
0	667	189.086665911892	278
0	668	190	277
0	671	190.006009011523	278
0	672	190.006009011523	279
0	674	191.10259996937	280
0	675	191.10259996937	281
0	677	192.350401353964	282
0	678	192.350401353964	283
0	679	192.5	282
0	682	193.028268668528	283
0	683	193.028268668528	284
0	685	193.561674337948	285
0	686	193.561674337948	286
0	688	193.845328698012	287
0	689	193.845328698012	288
0	691	194.689922989975	289
0	692	194.689922989975	290
0	693	195	289
0	696	196.349576678	290
0	697	196.349576678	291
0	699	197.045716070936	292
0	700	197.045716070936	293
0	701	197.5	292
0	704	197.859626374443	293
0	705	197.859626374443	294
0	707	199.077547233915	295
0	708	199.077547233915	296
0	710	199.525035221501	297
0	711	199.525035221501	298
0	713	199.830488701404	299
0	714	199.830488701404	300
0	715	200	299
0	718	202.04549666054	300
0	719	202.04549666054	301
0	720	202.5	300
0	723	203.246695632301	301
0	724	203.246695632301	302
0	726	204.049504282441	303
0	727	204.049504282441	304
0	728	205	303
0	731	205.066322539011	304
0	732	205.066322539011	305
0	734	205.657554281457	306
0	735	205.657554281457	307
0	737	206.006372098929	308
0	738	206.006372098929	309
0	739	207.5	308
0	742	207.701261247814	309
0	743	207.701261247814	310
0	745	208.755054260069	311
0	746	208.755054260069	312
0	748	209.430749009288	313
0	749	209.430749009288	314
0	750	210	313
0	753	211.112922766149	314
0	754	211.112922766149	315
0	756	211.751552925412	316
0	757	211.751552925412	317
0	758	212.5	316
0	761	213.233058722065	317
0	762	213.233058722065	318
0	764	214.181048585902	319
0	765	214.181048585902	320
0	767	214.455089009599	321
0	768	214.455089009599	322
0	769	215	321
0	772	215.069038270573	322
0	773	215.069038270573	323
0	775	216.868567087978	324
0	776	216.868567087978	325
0	777	217.5	324
0	780	217.877047317221	325
0	781	217.877047317221	326
0	783	219.419512072333	327
0	784	219.419512072333	328
0	785	220	327
0	788	220.879807954266	328
0	789	220.879807954266	329
0	791	221.4571157108	330
0	792	221.4571157108	331
0	793	222.5	330
0	796	222.734990118876	331
0	797	222.734990118876	332
0	799	224.076074399708	333
0	800	224.076074399708	334
0	801	225	333
0	804	225.217842567315	334
0	805	225.217842567315	335
0	806	227.5	334
0	809	227.748280676212	335
0	810	227.748280676212	336
0	812	228.290232284769	337
0	813	228.290232284769	338
0	815	229.244180516154	339
0	816	229.244180516154	340
0	817	230	339
0	820	230.37188619846	340
0	821	230.37188619846	341
0	823	231.573324493384	342
0	824	231.573324493384	343
0	826	232.077328659353	344
0	827	232.077328659353	345
0	828	232.5	344
0	831	233.512869761179	345
0	832	233.512869761179	346
0	834	233.607576681639	347
0	835	233.607576681639	348
0	837	234.002504346447	349
0	838	234.002504346447	350
0	839	235	349
0	842	235.025810215812	350
0	843	235.025810215812	351
0	845	236.529729052348	352
0	846	236.529729052348	353
0	848	236.81328762317	354
0	849	236.81328762317	355
0	850	237.5	354
0	853	237.519190610858	355
0	854	237.519190610858	356
0	856	238.704741071603	357
0	857	238.704741071603	358
0	859	239.91305604012	359
0	860	239.91305604012	360
0	861	240	359
0	864	240.492162391236	360
0	865	240.492162391236	361
0	867	241.466275625771	362
0	868	241.466275625771	363
0	870	242.19487509369	364
0	871	242.19487509369	365
0	872	242.5	364
0	875	243.297245096565	365
0	876	243.297245096565	366
0	878	243.998049198864	367
0	879	243.998049198864	368
0	881	244.891801522108	369
0	882	244.891801522108	370
0	883	245	369
0	886	247.016295635745	370
0	887	247.016295635745	371
0	888	247.5	370
0	891	247.668220465807	371
0	892	247.668220465807	372
0	894	248.334058448102	373
0	895	248.334058448102	374
0	896	250	373
0	899	250.293679904253	374
0	900	250.293679904253	375
0	902	251.418931062073	376
0	903	251.418931062073	377
0	904	252.5	376
0	907	253.590600333552	377
0	908	253.590600333552	378
0	910	254.602707439965	379
0	911	254.602707439965	380
0	912	255	379
0	915	256.21432950991	380
0	916	256.21432950991	381
0	918	256.387305554351	382
0	919	256.387305554351	383
0	921	257.27758717226	384
0	922	257.27758717226	385
0	923	257.5	384
0	926	258.617437957961	385
0	927	258.617437957961	386
0	928	260	385
0	931	260.54237710745	386
0	932	260.54237710745	387
0	934	261.990025930118	388
0	935	261.990025930118	389
0	936	262.5	388
0	939	262.555268491711	389
0	940	262.555268491711	390
0	942	263.25228418473	391
0	943	263.25228418473	392
0	945	263.874036407462	393
0	946	263.874036407462	394
0	947	265	393
0	950	265.044340514153	394
0	951	265.044340514153	395
0	953	265.728360551198	396
0	954	265.728360551198	397
0	956	265.801440315104	398
0	957	265.801440315104	399
0	959	266.855936822732	400
0	960	266.855936822732	401
0	962	267.442783242163	402
0	963	267.442783242163	403
0	964	267.5	402
0	967	268.096384612782	403
0	968	268.096384612782	404
0	970	269.487738643459	405
0	971	269.487738643459	406
0	972	270	405
0	975	271.00170131952	406
0	976	271.00170131952	407
0	978	271.94642058876	408
0	979	271.94642058876	409
0	980	272.5	408
0	983	272.955450342489	409
0	984	272.955450342489	410
0	986	273.60073202255	411
0	987	273.60073202255	412
0	988	275	411
0	991	275.568046552394	412
0	992	275.568046552394	413
0	993	277.5	412
0	996	277.551206996837	413
0	997	277.551206996837	414
0	999	279.124082632539	415
0	1000	279.124082632539	416
0	1001	280	415
0	1004	280.448751406408	416
0	1005	280.448751406408	417
0	1007	281.469444687589	418
0	1008	281.469444687589	419
0	1009	282.5	418
0	1012	283.055454212594	419
0	1013	283.055454212594	420
0	1015	283.526957420535	421
0	1016	283.526957420535	422
0	1018	284.076706202169	423
0	1019	284.076706202169	424
0	1020	285	423
0	1023	286.040936851493	424
0	1024	286.040936851493	425
0	1025	287.5	424
0	1028	287.830499382854	425
0	1029	287.830499382854	426
0	1031	288.528581865336	427
0	1032	288.528581865336	428
0	1034	289.291907755594	429
0	1035	289.291907755594	430
0	1036	290	429
0	1039	290.203546543107	430
0	1040	290.203546543107	431
0	1042	291.612243968959	432
0	1043	291.612243968959	433
0	1045	292.422595163015	434
0	1046	292.422595163015	435
0	1047	292.5	434
0	1050	293.165654011731	435
0	1051	293.165654011731	436
0	1053	293.949945442404	437
0	1054	293.949945442404	438
0	1056	294.54684591113	439
0	1057	294.54684591113	440
0	1058	295	439
0	1061	295.964009661601	440
0	1062	295.964009661601	441
0	1064	297.325985186085	442
0	1065	297.325985186085	443
0	1066	297.5	442
0	1069	298.978252144533	443
0	1070	298.978252144533	444
0	1072	299.051308787506	445
0	1073	299.051308787506	446
0	1074	300	445
0	1077	300.41780664531	446
0	1078	300.41780664531	447
0	1080	302.207789574447	448
0	1081	302.207789574447	449
0	1082	302.5	448
0	1085	302.83855570277	449
0	1086	302.83855570277	450
0	1088	304.249811799337	451
0	1089	304.249811799337	452
0	1090	305	451
0	1093	306.713339276125	452
0	1094	306.713339276125	453
0	1095	307.5	452
0	1098	307.663279979881	453
0	1099	307.663279979881	454
0	1101	307.685917149002	455
0	1102	307.685917149002	456
0	1104	307.873946161216	457
0	1105	307.873946161216	458
0	1107	309.232834406769	459
0	1108	309.232834406769	460
0	1109	310	459
0	1112	311.42042524172	460
0	1113	311.42042524172	461
0	1114	312.5	460
0	1117	312.594833039264	461
0	1118	312.594833039264	462
0	1120	314.151971560039	463
0	1121	314.151971560039	464
0	1122	315	463
0	1125	315.045856943833	464
0	1126	315.045856943833	465
0	1128	316.52159296612	466
0	1129	316.52159296612	467
0	1131	317.313859681012	468
0	1132	317.313859681012	469
0	1133	317.5	468
0	1136	318.134113082744	469
0	1137	318.134113082744	470
0	1139	318.618114827602	471
0	1140	318.618114827602	472
0	1142	319.167889901465	473
0	1143	319.167889901465	474
0	1144	320	473
0	1147	320.924128758979	474
0	1148	320.924128758979	475
0	1150	321.484976544121	476
0	1151	321.484976544121	477
0	1153	322.364662411832	478
0	1154	322.364662411832	479
0	1155	322.5	478
0	1158	323.336479170478	479
0	1159	323.336479170478	480
0	1161	323.898009385734	481
0	1162	323.898009385734	482
0	1163	325	481
0	1166	325.131445811027	482
0	1167	325.131445811027	483
0	1169	325.808335535552	484
0	1170	325.808335535552	485
0	1172	326.279277282753	486
0	1173	326.279277282753	487
0	1174	327.5	486
0	1177	327.525773582018	487
0	1178	327.525773582018	488
0	1180	328.351222602997	489
0	1181	328.351222602997	490
0	1183	329.309831394841	491
0	1184	329.309831394841	492
0	1185	330	491
0	1188	330.450546504092	492
0	1189	330.450546504092	493
0	1191	331.707894253422	494
0	1192	331.707894253422	495
0	1193	332.5	494
0	1196	334.468772424892	495
0	1197	334.468772424892	496
0	1198	335	495
0	1201	335.292678303823	496
0	1202	335.292678303823	497
0	1204	336.625208388473	498
0	1205	336.625208388473	499
0	1206	337.5	498
0	1209	338.157045978393	499
0	1210	338.157045978393	500
0	1211	340	499
0	1214	340.066764054924	500
0	1215	340.066764054924	501
0	1217	341.085843425961	502
0	1218	341.085843425961	503
0	1220	341.722180963626	504
0	1221	341.722180963626	505
0	1223	342.497115243389	506
0	1224	342.497115243389	507
0	1225	342.5	506
0	1228	343.203289880627	507
0	1229	343.203289880627	508
0	1231	344.440783960621	509
0	1232	344.440783960621	510
0	1233	345	509
0	1236	345.724062890815	510
0	1237	345.724062890815	511
0	1239	346.940687473011	512
0	1240	346.940687473011	513
0	1241	347.5	512
0	1244	347.5301154384	513
0	1245	347.5301154384	514
0	1247	349.387122611854	515
0	1248	349.387122611854	516
0	1249	350	515
0	1252	350.258299168095	516
0	1253	350.258299168095	517
0	1255	350.813411039344	518
0	1256	350.813411039344	519
0	1258	351.622395855559	520
0	1259	351.622395855559	521
0	1260	352.5	520
0	1263	353.049154451185	521
0	1264	353.049154451185	522
0	1265	355	521
0	1268	355.087604887595	522
0	1269	355.087604887595	523
0	1271	356.536373365629	524
0	1272	356.536373365629	525
0	1274	357.217271188239	526
0	1275	357.217271188239	527
0	1276	357.5	526
0	1279	357.65236828097	527
0	1280	357.65236828097	528
0	1282	358.91040726572	529
0	1283	358.91040726572	530
0	1284	360	529
0	1287	360.262350747607	530
0	1288	360.262350747607	531
0	1290	361.36396850839	532
0	1291	361.36396850839	533
0	1293	362.218776873418	534
0	1294	362.218776873418	535
0	1295	362.5	534
0	1298	363.081154077593	535
0	1299	363.081154077593	536
0	1301	364.121678703845	537
0	1302	364.121678703845	538
0	1304	364.82372722088	539
0	1305	364.82372722088	540
0	1306	365	539
0	1309	365.394633004449	540
0	1310	365.394633004449	541
0	1311	367.5	540
0	1314	368.816185165432	541
0	1315	368.816185165432	542
0	1317	369.166229103166	543
0	1318	369.166229103166	544
0	1319	370	543
0	1322	370.869662013364	544
0	1323	370.869662013364	545
0	1325	371.981844926123	546
0	1326	371.981844926123	547
0	1327	372.5	546
0	1330	372.814129319777	547
0	1331	372.814129319777	548
0	1333	373.256785448035	549
0	1334	373.256785448035	550
0	1336	374.485995023104	551
0	1337	374.485995023104	552
0	1338	375	551
0	1341	375.632890185195	552
0	1342	375.632890185195	553
0	1343	377.5	552
0	1346	377.653142875887	553
0	1347	377.653142875887	554
0	1349	378.026783431185	555
0	1350	378.026783431185	556
0	1351	380	555
0	1354	380.044815345955	556
0	1355	380.044815345955	557
0	1357	380.550127015867	558
0	1358	380.550127015867	559
0	1360	381.426604752737	560
0	1361	381.426604752737	561
0	1362	382.5	560
0	1365	382.781609962747	561
0	1366	382.781609962747	562
0	1368	383.956858051465	563
0	1369	383.956858051465	564
0	1370	385	563
0	1373	385.174400413465	564
0	1374	385.174400413465	565
0	1376	386.433412478546	566
0	1377	386.433412478546	567
0	1379	387.416408918087	568
0	1380	387.416408918087	569
0	1381	387.5	568
0	1384	387.907209118312	569
0	1385	387.907209118312	570
0	1387	389.922164738318	571
0	1388	389.922164738318	572
0	1389	390	571
0	1392	391.066315914998	572
0	1393	391.066315914998	573
0	1394	392.5	572
0	1397	392.957353892069	573
0	1398	392.957353892069	574
0	1400	393.290760887135	575
0	1401	393.290760887135	576
0	1403	394.166830328073	577
0	1404	394.166830328073	578
0	1406	394.608167379516	579
0	1407	394.608167379516	580
0	1408	395	579
0	1411	395.852103765505	580
0	1412	395.852103765505	581
0	1414	397.081467135718	582
0	1415	397.081467135718	583
0	1416	397.5	582
0	1419	398.528686475376	583
0	1420	398.528686475376	584
0	1422	399.026774222379	585
0	1423	399.026774222379	586
0	1424	400	585
0	1427	400.612478190839	586
0	1428	400.612478190839	587
0	1430	401.846043643598	588
0	1431	401.846043643598	589
0	1432	402.5	588
0	1435	402.604860162979	589
0	1436	402.604860162979	590
0	1438	403.688925502375	591
0	1439	403.688925502375	592
0	1440	405	591
0	1443	405.162519887673	592
0	1444	405.162519887673	593
0	1446	406.482018465453	594
0	1447	406.482018465453	595
0	1448	407.5	594
0	1451	407.834514568318	595
0	1452	407.834514568318	596
0	1454	408.392169163727	597
0	1455	408.392169163727	598
0	1457	408.656080994206	599
0	1458	408.656080994206	600
0	1460	409.268022948852	601
0	1461	409.268022948852	602
0	1462	410	601
0	1465	410.342226738361	602
0	1466	410.342226738361	603
0	1468	412.154525449268	604
0	1469	412.154525449268	605
0	1470	412.5	604
0	1473	413.39529360202	605
0	1474	413.39529360202	606
0	1476	414.86158309683	607
0	1477	414.86158309683	608
0	1478	415	607
0	1481	415.632349839656	608
0	1482	415.632349839656	609
0	1484	416.836418078316	610
0	1485	416.836418078316	611
0	1486	417.5	610
0	1489	417.50083473452	611
0	1490	417.50083473452	612
0	1492	417.854319787143	613
0	1493	417.854319787143	614
0	1495	418.475532258168	615
0	1496	418.475532258168	616
0	1498	419.571220240793	617
0	1499	419.571220240793	618
0	1500	420	617
0	1503	421.539588178488	618
0	1504	421.539588178488	619
0	1506	422.431927369987	620
0	1507	422.431927369987	621
0	1508	422.5	620
0	1511	422.509331361219	621
0	1512	422.509331361219	622
0	1514	422.920320249533	623
0	1515	422.920320249533	624
0	1517	424.532718055523	625
0	1518	424.532718055523	626
0	1519	425	625
0	1522	425.83047220347	626
0	1523	425.83047220347	627
0	1525	426.740705724403	628
0	1526	426.740705724403	629
0	1528	427.161248246969	630
0	1529	427.161248246969	631
0	1530	427.5	630
0	1533	427.782957659017	631
0	1534	427.782957659017	632
0	1536	428.518874528487	633
0	1537	428.518874528487	634
0	1539	429.580110135727	635
0	1540	429.580110135727	636
0	1541	430	635
0	1544	430.672655600581	636
0	1545	430.672655600581	637
0	1547	431.147376221911	638
0	1548	431.147376221911	639
0	1550	432.224832189793	640
0	1551	432.224832189793	641
0	1552	432.5	640
0	1555	433.3608979459	641
0	1556	433.3608979459	642
0	1558	434.267217619786	643
0	1559	434.267217619786	644
0	1561	434.786458445788	645
0	1562	434.786458445788	646
0	1563	435	645
0	1566	436.178205920585	646
0	1567	436.178205920585	647
0	1569	436.696853738133	648
0	1570	436.696853738133	649
0	1571	437.5	648
0	1574	438.741640857691	649
0	1575	438.741640857691	650
0	1577	439.504291899905	651
0	1578	439.504291899905	652
0	1579	440	651
0	1582	440.811133907447	652
0	1583	440.811133907447	653
0	1585	441.637595460412	654
0	1586	441.637595460412	655
0	1587	442.5	654
0	1590	442.959776234132	655
0	1591	442.959776234132	656
0	1593	443.688856367214	657
0	1594	443.688856367214	658
0	1596	444.654860343202	659
0	1597	444.654860343202	660
0	1598	445	659
0	1601	446.852223963175	660
0	1602	446.852223963175	661
0	1603	447.5	660
0	1606	448.242786315384	661
0	1607	448.242786315384	662
0	1609	449.318856649948	663
0	1610	449.318856649948	664
0	1612	449.567264784202	665
0	1613	449.567264784202	666
0	1614	450	665
0	1617	450.694444234935	666
0	1618	450.694444234935	667
0	1620	451.568509734605	668
0	1621	451.568509734605	669
0	1623	451.953374640194	670
0	1624	451.953374640194	671
0	1625	452.5	670
0	1628	453.38195078748	671
0	1629	453.38195078748	672
0	1630	455	671
0	1633	456.461732952941	672
0	1634	456.461732952941	673
0	1636	457.303110925917	674
0	1637	457.303110925917	675
0	1638	457.5	674
0	1641	458.8205651973	675
0	1642	458.8205651973	676
0	1644	459.736579018249	677
0	1645	459.736579018249	678
0	1646	460	677
0	1649	460.458546378248	678
0	1650	460.458546378248	679
0	1652	460.709993781045	680
0	1653	460.709993781045	681
0	1654	462.5	680
0	1657	462.675965729599	681
0	1658	462.675965729599	682
0	1660	464.015334811614	683
0	1661	464.015334811614	684
0	1662	465	683
0	1665	465.740642570852	684
0	1666	465.740642570852	685
0	1668	466.218931720837	686
0	1669	466.218931720837	687
0	1671	467.08047188647	688
0	1672	467.08047188647	689
0	1673	467.5	688
0	1676	468.506948940448	689
0	1677	468.506948940448	690
0	1679	469.065102977534	691
0	1680	469.065102977534	692
0	1681	470	691
0	1684	470.179895294299	692
0	1685	470.179895294299	693
0	1687	471.088595142327	694
0	1688	471.088595142327	695
0	1690	471.9747138038	696
0	1691	471.9747138038	697
0	1692	472.5	696
0	1695	472.796838514067	697
0	1696	472.796838514067	698
0	1698	473.719954437738	699
0	1699	473.719954437738	700
0	1700	475	699
0	1703	475.75097398922	700
0	1704	475.75097398922	701
0	1706	476.705069512176	702
0	1707	476.705069512176	703
0	1708	477.5	702
0	1711	477.583845441338	703
0	1712	477.583845441338	704
0	1714	478.789417620037	705
0	1715	478.789417620037	706
0	1717	479.504971756314	707
0	1718	479.504971756314	708
0	1719	480	707
0	1722	480.803888277285	708
0	1723	480.803888277285	709
0	1725	481.783820034505	710
0	1726	481.783820034505	711
0	1727	482.5	710
0	1730	482.887911581661	711
0	1731	482.887911581661	712
0	1733	484.151456190311	713
0	1734	484.151456190311	714
0	1735	485	713
0	1738	485.149116624472	714
0	1739	485.149116624472	715
0	1741	486.140359697685	716
0	1742	486.140359697685	717
0	1743	487.5	716
0	1746	487.658197389942	717
0	1747	487.658197389942	718
0	1749	489.364953686372	719
0	1750	489.364953686372	720
0	1752	489.497950713636	721
0	1753	489.497950713636	722
0	1754	490	721
0	1757	490.696007282151	722
0	1758	490.696007282151	723
0	1760	491.952140359783	724
0	1761	491.952140359783	725
0	1763	492.179892594259	726
0	1764	492.179892594259	727
0	1765	492.5	726
0	1768	493.407817809486	727
0	1769	493.407817809486	728
0	1771	494.779275591783	729
0	1772	494.779275591783	730
0	1773	495	729
0	1776	497.045027155188	730
0	1777	497.045027155188	731
0	1778	497.5	730
0	1781	497.630666552581	731
0	1782	497.630666552581	732
0	1784	499.575669806194	733
0	1785	499.575669806194	734
0	1786	500	733
0	1789	500.024056058901	734
0	1790	500.024056058901	735
0	1792	500.534306423654	736
0	1793	500.534306423654	737
0	1795	501.41922804354	738
0	1796	501.41922804354	739
0	1797	502.5	738
0	1800	503.903450933078	739
0	1801	503.903450933078	740
0	1803	504.526147475796	741
0	1804	504.526147475796	742
0	1805	505	741
0	1808	506.121304049028	742
0	1809	506.121304049028	743
0	1811	507.302303785919	744
0	1812	507.302303785919	745