version 3
run k_MM1_lbqf-28-20221127-16:03:36-25264
attr configname k_MM1_lbqf
attr datetime 20221127-16:03:36
attr datetimef 20221127-160336
attr experiment k_MM1_lbqf
attr inifile omnetpp.ini
attr iterationvars "$time=2.5, $num=5, $0=53542, $1=75335, $2=34542"
attr iterationvarsd time=2.5/num=5/53542/75335/34542
attr iterationvarsf time=2.5,num=5,53542,75335,34542-
attr measurement "$time=2.5, $num=5, $0=53542, $1=75335, $2=34542"
attr network lbqfkMM1
attr processid 25264
attr repetition 0
attr replication #0
attr resultdir results
attr runnumber 28
attr seedset 28
itervar num 5
itervar time 2.5
config description "MM1 module k-times lbqf"
config network lbqfkMM1
config **.interArrivalTime "truncnormal(uniform(0.5s, 1.5s), uniform(0.25s, 0.75s))"
config **.serviceTime 2.5s
config **.c 5
config **.capacity 10000
config record-eventlog false
config **.scalar-recording true
config **.vector-recording true
config repeat 4
config seed-1-mt 53542
config seed-2-mt 75335
config seed-3-mt 34542
config output-vector-file k_MM1_lbqf-5-2.5-results/0.vec
config output-scalar-file k_MM1_lbqf-5-2.5-results/0.sca

vector 0 lbqfkMM1.mm1[0] queueLength:vector ETV
attr interpolationmode none
attr recordingmode vector
attr title "queue length"
vector 1 lbqfkMM1.mm1[1] queueLength:vector ETV
attr interpolationmode none
attr recordingmode vector
attr title "queue length"
vector 2 lbqfkMM1.mm1[2] queueLength:vector ETV
attr interpolationmode none
attr recordingmode vector
attr title "queue length"
vector 3 lbqfkMM1.mm1[0] util:vector ETV
attr interpolationmode none
attr recordingmode vector
attr title resources
vector 4 lbqfkMM1.mm1[1] util:vector ETV
attr interpolationmode none
attr recordingmode vector
attr title resources
vector 5 lbqfkMM1.mm1[2] util:vector ETV
attr interpolationmode none
attr recordingmode vector
attr title resources
vector 6 lbqfkMM1.mm1[3] queueLength:vector ETV
attr interpolationmode none
attr recordingmode vector
attr title "queue length"
vector 7 lbqfkMM1.mm1[4] queueLength:vector ETV
attr interpolationmode none
attr recordingmode vector
attr title "queue length"
vector 8 lbqfkMM1.mm1[3] util:vector ETV
attr interpolationmode none
attr recordingmode vector
attr title resources
vector 9 lbqfkMM1.mm1[4] util:vector ETV
attr interpolationmode none
attr recordingmode vector
attr title resources
0	5	10	1
0	16	12.5	0
0	22	13.248806598664	1
0	23	13.248806598664	2
0	35	15	1
0	49	17.5	0
0	55	18.419975754818	1
0	56	18.419975754818	2
0	68	20	1
0	87	22.5	0
0	93	22.941844615268	1
0	94	22.941844615268	2
0	114	25	1
0	139	27.5	0
0	145	27.794171813659	1
0	146	27.794171813659	2
0	164	30	1
0	191	32.5	0
0	197	33.275618291531	1
0	198	33.275618291531	2
0	221	35	1
0	249	37.358678760221	2
0	250	37.358678760221	3
0	251	37.5	2
0	271	40	1
0	296	42.5	0
0	302	42.87118179366	1
0	303	42.87118179366	2
0	318	45	1
0	340	47.5	0
0	349	48.886411798625	1
0	350	48.886411798625	2
0	357	50	1
0	389	52.212862249891	2
0	390	52.212862249891	3
0	394	52.5	2
0	424	55	1
0	441	57.038443520923	2
0	442	57.038443520923	3
0	454	57.5	2
0	484	60	1
0	490	60.602305283149	2
0	491	60.602305283149	3
0	514	62.5	2
0	534	65	1
0	551	66.765422674751	2
0	552	66.765422674751	3
0	559	67.5	2
0	589	70	1
0	606	71.883983524892	2
0	607	71.883983524892	3
0	614	72.5	2
0	649	75	1
0	658	76.230190447685	2
0	659	76.230190447685	3
0	669	77.5	2
0	694	80	1
0	716	81.839625540775	2
0	717	81.839625540775	3
0	724	82.5	2
0	759	85	1
0	768	86.181361424089	2
0	769	86.181361424089	3
0	779	87.5	2
0	804	90	1
0	829	92.5	0
0	838	93.955193351481	1
0	839	93.955193351481	2
0	854	95	1
0	879	97.5	0
0	885	97.629817655323	1
0	886	97.629817655323	2
0	901	100	1
0	931	102.5	0
0	937	102.919160146365	1
0	938	102.919160146365	2
0	961	105	1
0	983	107.360256492287	2
0	984	107.360256492287	3
0	988	107.5	2
0	1013	110	1
0	1038	112.5	0
0	1044	112.516339185432	1
0	1045	112.516339185432	2
0	1063	115	1
0	1090	116.637765858739	2
0	1091	116.637765858739	3
0	1098	117.5	2
0	1118	120	1
0	1143	122.5	0
0	1149	122.650746082415	1
0	1150	122.650746082415	2
0	1175	125	1
0	1195	127.5	0
0	1201	128.082328416676	1
0	1202	128.082328416676	2
0	1235	130	1
0	1241	130.383655483427	2
0	1242	130.383655483427	3
0	1260	132.5	2
0	1290	135	1
0	1296	136.110457332498	2
0	1297	136.110457332498	3
0	1320	137.5	2
0	1345	140	1
0	1351	140.321353580663	2
0	1352	140.321353580663	3
0	1370	142.5	2
0	1405	145	1
0	1411	146.029265864968	2
0	1412	146.029265864968	3
0	1430	147.5	2
0	1460	150	1
0	1466	150.353196801018	2
0	1467	150.353196801018	3
0	1485	152.5	2
0	1510	155	1
0	1519	156.320689969812	2
0	1520	156.320689969812	3
0	1535	157.5	2
0	1560	160	1
0	1585	162.5	0
0	1591	163.613064116851	1
0	1592	163.613064116851	2
0	1615	165	1
0	1640	167.5	0
0	1652	168.946514048191	1
0	1653	168.946514048191	2
0	1665	170	1
0	1690	172.5	0
0	1696	172.702414259188	1
0	1697	172.702414259188	2
0	1715	175	1
0	1737	177.5	0
0	1743	177.680222182305	1
0	1744	177.680222182305	2
0	1769	180	1
0	1780	180.599720769189	2
0	1781	180.599720769189	3
0	1799	182.5	2
0	1819	185	1
0	1852	187.499328529436	2
0	1853	187.499328529436	3
0	1854	187.5	2
0	1879	190	1
0	1899	192.5	0
0	1905	192.587314238558	1
0	1906	192.587314238558	2
0	1924	195	1
0	1946	197.5	0
0	1952	197.724801911249	1
0	1953	197.724801911249	2
0	1973	200	1
0	1995	201.976230110517	2
0	1996	201.976230110517	3
0	2000	202.5	2
0	2025	205	1
0	2050	207.5	0
0	2062	209.133935532564	1
0	2063	209.133935532564	2
0	2070	210	1
0	2095	212.5	0
0	2101	213.294467354273	1
0	2102	213.294467354273	2
0	2124	215	1
0	2141	217.5	0
0	2147	217.712492312457	1
0	2148	217.712492312457	2
0	2163	220	1
0	2185	222.5	0
0	2191	223.248145834678	1
0	2192	223.248145834678	2
0	2212	225	1
0	2234	227.5	0
0	2240	227.742749616002	1
0	2241	227.742749616002	2
0	2264	230	1
0	2289	232.5	0
0	2295	232.581509557301	1
0	2296	232.581509557301	2
0	2319	235	1
0	2344	237.5	0
0	2350	237.956130315998	1
0	2351	237.956130315998	2
0	2369	240	1
0	2399	242.5	0
0	2414	244.637155094336	1
0	2415	244.637155094336	2
0	2419	245	1
0	2449	247.5	0
0	2458	248.45526389661	1
0	2459	248.45526389661	2
0	2466	250	1
0	2493	252.5	0
0	2508	254.26533193356	1
0	2509	254.26533193356	2
0	2515	255	1
0	2542	257.5	0
0	2548	257.884495234746	1
0	2549	257.884495234746	2
0	2572	260	1
0	2600	262.392531993437	2
0	2601	262.392531993437	3
0	2602	262.5	2
0	2622	265	1
0	2642	267.5	0
0	2648	267.583272552559	1
0	2649	267.583272552559	2
0	2669	270	1
0	2691	272.5	0
0	2697	272.735421600696	1
0	2698	272.735421600696	2
0	2713	275	1
0	2740	277.5	0
0	2749	278.54186771334	1
0	2750	278.54186771334	2
0	2765	280	1
0	2790	282.5	0
0	2796	282.634356130454	1
0	2797	282.634356130454	2
0	2817	285	1
0	2839	287.5	0
0	2851	288.485090998859	1
0	2852	288.485090998859	2
0	2864	290	1
0	2894	292.5	0
0	2909	294.626532069304	1
0	2910	294.626532069304	2
0	2914	295	1
0	2939	297.5	0
0	2945	297.939665066586	1
0	2946	297.939665066586	2
0	2961	300	1
0	2985	302.5	0
0	2991	303.032108438067	1
0	2992	303.032108438067	2
0	3010	305	1
0	3035	307.5	0
0	3041	307.504106864219	1
0	3042	307.504106864219	2
0	3067	310	1
0	3092	312.5	0
0	3098	312.748062875478	1
0	3099	312.748062875478	2
0	3122	315	1
0	3147	317.5	0
0	3153	317.876155846647	1
0	3154	317.876155846647	2
0	3177	320	1
0	3202	322.5	0
0	3208	322.913412080788	1
0	3209	322.913412080788	2
0	3227	325	1
0	3252	327.5	0
0	3258	327.509336543651	1
0	3259	327.509336543651	2
0	3282	330	1
0	3299	332.5	0
0	3305	333.253480513344	1
0	3306	333.253480513344	2
0	3326	335	1
0	3343	337.5	0
0	3349	337.831168282471	1
0	3350	337.831168282471	2
0	3370	340	1
0	3392	342.5	0
0	3398	342.928335784631	1
0	3399	342.928335784631	2
0	3422	345	1
0	3447	347.5	0
0	3453	347.707777381127	1
0	3454	347.707777381127	2
0	3477	350	1
0	3502	352.5	0
0	3511	353.829652143752	1
0	3512	353.829652143752	2
0	3522	355	1
0	3557	357.5	0
0	3563	358.044001129879	1
0	3564	358.044001129879	2
0	3587	360	1
0	3612	362.5	0
0	3618	362.503099751956	1
0	3619	362.503099751956	2
0	3642	365	1
0	3667	367.5	0
0	3673	368.265957228969	1
0	3674	368.265957228969	2
0	3692	370	1
0	3719	371.991789836098	2
0	3720	371.991789836098	3
0	3727	372.5	2
0	3752	375	1
0	3768	376.089313573861	2
0	3769	376.089313573861	3
0	3792	377.5	2
0	3812	380	1
0	3826	381.161119317943	2
0	3827	381.161119317943	3
0	3837	382.5	2
0	3862	385	1
0	3887	387.5	0
0	3893	387.848303752099	1
0	3894	387.848303752099	2
0	3912	390	1
0	3942	392.5	0
0	3948	393.493540345029	1
0	3949	393.493540345029	2
0	3967	395	1
0	3992	397.5	0
0	3998	397.761629102757	1
0	3999	397.761629102757	2
0	4019	400	1
0	4041	402.5	0
0	4047	403.410413215436	1
0	4048	403.410413215436	2
0	4061	405	1
0	4081	407.5	0
0	4087	407.822269610697	1
0	4088	407.822269610697	2
0	4102	410	1
0	4121	412.5	0
0	4127	413.419981420043	1
0	4128	413.419981420043	2
0	4143	415	1
0	4160	417.5	0
0	4166	417.643771093887	1
0	4167	417.643771093887	2
0	4189	420	1
0	4214	421.947164240499	2
0	4215	421.947164240499	3
0	4219	422.5	2
0	4239	425	1
0	4264	427.5	0
0	4270	427.61122647281	1
0	4271	427.61122647281	2
0	4289	430	1
0	4316	432.5	0
0	4322	433.078238864219	1
0	4323	433.078238864219	2
0	4341	435	1
0	4363	437.5	0
0	4378	439.183094646284	1
0	4379	439.183094646284	2
0	4380	440	1
0	4407	442.5	0
0	4413	443.326944567694	1
0	4414	443.326944567694	2
0	4439	445	1
0	4459	447.5	0
0	4465	447.778970396348	1
0	4466	447.778970396348	2
0	4489	450	1
0	4509	452.5	0
0	4515	452.537364546059	1
0	4516	452.537364546059	2
0	4534	455	1
0	4548	457.5	0
0	4554	457.505342080557	1
0	4555	457.505342080557	2
0	4572	460	1
0	4586	462.5	0
0	4592	462.737929088294	1
0	4593	462.737929088294	2
0	4613	465	1
0	4638	466.852854272034	2
0	4639	466.852854272034	3
0	4640	467.5	2
0	4670	470	1
0	4693	471.397366300711	2
0	4694	471.397366300711	3
0	4700	472.5	2
0	4730	475	1
0	4745	476.258827292866	2
0	4746	476.258827292866	3
0	4755	477.5	2
0	4780	480	1
0	4803	481.441672988945	2
0	4804	481.441672988945	3
0	4805	482.5	2
0	4835	485	1
0	4858	487.068414901083	2
0	4859	487.068414901083	3
0	4860	487.5	2
0	4890	490	1
0	4910	492.5	0
0	4919	493.038383602634	1
0	4920	493.038383602634	2
0	4935	495	1
0	4965	497.5	0
0	4977	498.292486847624	1
0	4978	498.292486847624	2
0	4990	500	1
0	5015	502.5	0
0	5021	503.210265815711	1
0	5022	503.210265815711	2
0	5032	505	1
0	5054	507.5	0
0	5060	507.972938527878	1
0	5061	507.972938527878	2
0	5078	510	1
0	5097	512.5	0
0	5109	513.857048724607	1
0	5110	513.857048724607	2
0	5117	515	1
0	5142	517.5	0
0	5151	518.853027591711	1
0	5152	518.853027591711	2
0	5156	520	1
0	5180	522.5	0
0	5186	522.822660116045	1
0	5187	522.822660116045	2
0	5207	525	1
0	5229	527.5	0
0	5235	528.011607907383	1
0	5236	528.011607907383	2
0	5259	530	1
0	5287	532.180172843209	2
0	5288	532.180172843209	3
0	5289	532.5	2
0	5314	535	1
0	5339	537.5	0
0	5345	537.961948471281	1
0	5346	537.961948471281	2
0	5369	540	1
0	5394	542.5	0
0	5406	543.95158507465	1
0	5407	543.95158507465	2
0	5424	545	1
0	5449	547.5	0
0	5455	548.459729477059	1
0	5456	548.459729477059	2
0	5479	550	1
0	5504	552.5	0
0	5516	554.028413597564	1
0	5517	554.028413597564	2
0	5529	555	1
0	5549	557.5	0
0	5558	558.756419739927	1
0	5559	558.756419739927	2
0	5568	560	1
0	5587	562.5	0
0	5596	563.659330958033	1
0	5597	563.659330958033	2
0	5609	565	1
0	5636	567.5	0
0	5642	567.977928207506	1
0	5643	567.977928207506	2
0	5661	570	1
0	5686	572.5	0
0	5692	572.872184158848	1
0	5693	572.872184158848	2
0	5713	575	1
0	5738	577.223519773246	2
0	5739	577.223519773246	3
0	5740	577.5	2
0	5770	580	1
0	5781	580.667812731566	2
0	5782	580.667812731566	3
0	5805	582.5	2
0	5827	584.186827746768	3
0	5828	584.186827746768	4
0	5835	585	3
0	5855	587.5	2
0	5880	590	1
0	5900	592.5	0
0	5906	592.791342492095	1
0	5907	592.791342492095	2
0	5925	595	1
0	5950	597.5	0
0	5956	597.578674162893	1
0	5957	597.578674162893	2
0	5972	600	1
0	5989	602.5	0
0	5995	603.076283930689	1
0	5996	603.076283930689	2
0	6013	605	1
0	6035	607.5	0
0	6041	608.414117210956	1
0	6042	608.414117210956	2
0	6057	610	1
0	6079	612.5	0
0	6088	613.584739730743	1
0	6089	613.584739730743	2
0	6101	615	1
0	6128	617.5	0
0	6134	617.782212702741	1
0	6135	617.782212702741	2
0	6158	620	1
0	6183	622.5	0
0	6192	623.501353041746	1
0	6193	623.501353041746	2
0	6208	625	1
0	6233	627.5	0
0	6239	627.626310757518	1
0	6240	627.626310757518	2
0	6263	630	1
0	6285	632.5	0
0	6291	632.945725093587	1
0	6292	632.945725093587	2
0	6315	635	1
0	6337	636.345681105352	2
0	6338	636.345681105352	3
0	6350	637.5	2
0	6380	640	1
0	6389	641.07950510825	2
0	6390	641.07950510825	3
0	6400	642.5	2
0	6430	645	1
0	6450	647.5	0
0	6456	647.591684545473	1
0	6457	647.591684545473	2
0	6485	650	1
0	6499	651.113807706062	2
0	6500	651.113807706062	3
0	6515	652.5	2
0	6540	655	1
0	6554	655.808838070991	2
0	6555	655.808838070991	3
0	6570	657.5	2
0	6595	660	1
0	6615	662.250168814338	2
0	6616	662.250168814338	3
0	6620	662.5	2
0	6640	665	1
0	6670	667.5	0
0	6676	667.591155975947	1
0	6677	667.591155975947	2
0	6700	670	1
0	6725	672.5	0
0	6731	672.966598064361	1
0	6732	672.966598064361	2
0	6755	675	1
0	6777	676.517130771001	2
0	6778	676.517130771001	3
0	6790	677.5	2
0	6815	680	1
0	6832	681.90988803537	2
0	6833	681.90988803537	3
0	6840	682.5	2
0	6865	685	1
0	6885	687.5	0
0	6891	688.586849790353	1
0	6892	688.586849790353	2
0	6912	690	1
0	6934	692.5	0
0	6940	693.241856703769	1
0	6941	693.241856703769	2
0	6959	695	1
0	6984	697.5	0
0	6993	698.805869408693	1
0	6994	698.805869408693	2
0	7006	700	1
0	7023	702.5	0
0	7029	702.633823456026	1
0	7030	702.633823456026	2
0	7052	705	1
0	7077	707.5	0
0	7086	708.399292237751	1
0	7087	708.399292237751	2
0	7102	710	1
0	7129	712.5	0
0	7138	713.113004999834	1
0	7139	713.113004999834	2
0	7154	715	1
0	7179	717.5	0
0	7191	719.265291445131	1
0	7192	719.265291445131	2
0	7201	720	1
0	7218	722.5	0
0	7227	723.278819950351	1
0	7228	723.278819950351	2
0	7240	725	1
0	7259	727.5	0
0	7265	727.582801495701	1
0	7266	727.582801495701	2
0	7291	730	1
0	7316	732.5	0
0	7322	732.55165503564	1
0	7323	732.55165503564	2
0	7346	735	1
0	7371	737.5	0
0	7380	737.944581547102	1
0	7381	737.944581547102	2
0	7391	740	1
0	7421	742.5	0
0	7439	744.741522544297	1
0	7440	744.741522544297	2
0	7441	745	1
0	7468	747.5	0
0	7474	748.0700926902	1
0	7475	748.0700926902	2
0	7500	750	1
0	7520	752.5	0
0	7526	752.997584975823	1
0	7527	752.997584975823	2
0	7545	755	1
0	7562	757.5	0
0	7568	757.859824710577	1
0	7569	757.859824710577	2
0	7586	760	1
0	7605	762.5	0
0	7614	763.325920420069	1
0	7615	763.325920420069	2
0	7635	765	1
0	7660	767.5	0
0	7666	767.574330785784	1
0	7667	767.574330785784	2
0	7690	770	1
0	7715	772.5	0
0	7721	772.688970297157	1
0	7722	772.688970297157	2
0	7745	775	1
0	7767	776.170702486808	2
0	7768	776.170702486808	3
0	7775	777.5	2
0	7810	780	1
0	7825	782.156593229245	2
0	7826	782.156593229245	3
0	7830	782.5	2
0	7855	785	1
0	7880	787.266136999506	2
0	7881	787.266136999506	3
0	7890	787.5	2
0	7920	790	1
0	7929	790.669033299563	2
0	7930	790.669033299563	3
0	7950	792.5	2
0	7975	795	1
0	7981	795.046121237039	2
0	7982	795.046121237039	3
0	8005	797.5	2
0	8025	800	1
0	8042	801.469697145609	2
0	8043	801.469697145609	3
0	8055	802.5	2
0	8085	805	1
0	8094	806.016189216452	2
0	8095	806.016189216452	3
0	8110	807.5	2
0	8135	810	1
0	8155	812.5	0
0	8161	812.742676611583	1
0	8162	812.742676611583	2
0	8195	815	1
0	8207	816.365170912267	2
0	8208	816.365170912267	3
0	8220	817.5	2
0	8240	820	1
0	8262	821.75815797328	2
0	8263	821.75815797328	3
0	8270	822.5	2
0	8295	825	1
0	8320	827.5	0
0	8326	827.906714494763	1
0	8327	827.906714494763	2
0	8350	830	1
0	8375	832.004569146598	2
0	8376	832.004569146598	3
0	8380	832.5	2
0	8400	835	1
0	8425	837.5	0
0	8431	838.375301128925	1
0	8432	838.375301128925	2
0	8452	840	1
0	8474	842.5	0
0	8480	843.003343964003	1
0	8481	843.003343964003	2
0	8499	845	1
0	8519	847.5	0
0	8525	847.685032706497	1
0	8526	847.685032706497	2
0	8538	850	1
0	8570	852.5	0
0	8576	852.547161451773	1
0	8577	852.547161451773	2
0	8605	855	1
0	8625	856.311924811819	2
0	8626	856.311924811819	3
0	8640	857.5	2
0	8651	858.167235331287	3
0	8652	858.167235331287	4
0	8665	860	3
0	8695	862.5	2
0	8720	865	1
0	8726	865.083785781826	2
0	8727	865.083785781826	3
0	8745	867.5	2
0	8765	870	1
0	8793	872.398860403198	2
0	8794	872.398860403198	3
0	8795	872.5	2
0	8825	875	1
0	8831	875.132703113443	2
0	8832	875.132703113443	3
0	8850	877.5	2
0	8880	880	1
0	8886	880.404476094253	2
0	8887	880.404476094253	3
0	8910	882.5	2
0	8940	885	1
0	8955	886.372843696165	2
0	8956	886.372843696165	3
0	8965	887.5	2
0	8995	890	1
0	9010	891.560275095277	2
0	9011	891.560275095277	3
0	9020	892.5	2
0	9045	895	1
0	9068	897.377989218835	2
0	9069	897.377989218835	3
0	9070	897.5	2
0	9095	900	1
0	9120	901.834409100926	2
0	9121	901.834409100926	3
0	9125	902.5	2
0	9145	905	1
0	9170	907.5	0
0	9176	907.860523157722	1
0	9177	907.860523157722	2
0	9192	910	1
0	9219	912.5	0
0	9225	913.301432688394	1
0	9226	913.301432688394	2
0	9244	915	1
0	9274	917.5	0
0	9280	917.835467327261	1
0	9281	917.835467327261	2
0	9299	920	1
0	9324	922.5	0
0	9330	922.560350222589	1
0	9331	922.560350222589	2
0	9351	925	1
0	9373	927.5	0
0	9379	927.940475781877	1
0	9380	927.940475781877	2
0	9398	930	1
0	9428	931.659045802761	2
0	9429	931.659045802761	3
0	9433	932.5	2
0	9458	935	1
0	9483	937.5	0
0	9489	938.002809246778	1
0	9490	938.002809246778	2
0	9518	940	1
0	9524	940.665726385819	2
0	9525	940.665726385819	3
0	9548	942.5	2
0	9578	945	1
0	9584	945.198611318279	2
0	9585	945.198611318279	3
0	9608	947.5	2
0	9633	950	1
0	9639	950.331197998737	2
0	9640	950.331197998737	3
0	9658	952.5	2
0	9683	955	1
0	9689	955.254138194325	2
0	9690	955.254138194325	3
0	9718	957.5	2
0	9738	960	1
0	9744	960.215387783517	2
0	9745	960.215387783517	3
0	9768	962.5	2
0	9793	965	1
0	9816	967.305002220891	2
0	9817	967.305002220891	3
0	9818	967.5	2
0	9843	970	1
0	9854	970.790651658434	2
0	9855	970.790651658434	3
0	9873	972.5	2
0	9893	975	1
0	9918	977.5	0
0	9924	977.652093963996	1
0	9925	977.652093963996	2
0	9940	980	1
0	9967	982.5	0
0	9973	983.369366041243	1
0	9974	983.369366041243	2
0	9992	985	1
0	10017	987.5	0
0	10029	988.938675432049	1
0	10030	988.938675432049	2
0	10034	990	1
0	10056	992.5	0
0	10062	992.738606311793	1
0	10063	992.738606311793	2
0	10083	995	1
0	10105	997.02637642896	2
0	10106	997.02637642896	3
0	10107	997.5	2
0	10137	1000	1
0	10157	1002.5	0
0	10163	1002.535142527005	1
0	10164	1002.535142527005	2
0	10187	1005	1
0	10212	1007.5	0
0	10221	1008.293626357456	1
0	10222	1008.293626357456	2
0	10237	1010	1
0	10262	1012.5	0
0	10268	1013.433434670586	1
0	10269	1013.433434670586	2
0	10289	1015	1
0	10314	1017.017090593151	2
0	10315	1017.017090593151	3
0	10316	1017.5	2
0	10341	1020	1
0	10366	1022.5	0
0	10372	1022.734621540953	1
0	10373	1022.734621540953	2
0	10391	1025	1
0	10416	1027.5	0
0	10422	1027.661085057157	1
0	10423	1027.661085057157	2
0	10448	1030	1
0	10462	1031.750625197949	2
0	10463	1031.750625197949	3
0	10470	1032.5	2
0	10495	1035	1
0	10517	1036.578256950844	2
0	10518	1036.578256950844	3
0	10525	1037.5	2
0	10550	1040	1
0	10575	1042.5	0
0	10581	1042.859178637934	1
0	10582	1042.859178637934	2
0	10600	1045	1
0	10625	1047.5	0
0	10631	1047.761695514724	1
0	10632	1047.761695514724	2
0	10652	1050	1
0	10677	1052.5	0
0	10683	1052.622548052496	1
0	10684	1052.622548052496	2
0	10707	1055	1
0	10727	1057.5	0
0	10733	1057.525319127763	1
0	10734	1057.525319127763	2
0	10759	1060	1
0	10773	1061.92101277046	2
0	10774	1061.92101277046	3
0	10786	1062.5	2
0	10816	1065	1
0	10822	1065.441756753537	2
0	10823	1065.441756753537	3
0	10841	1067.5	2
0	10871	1070	1
0	10880	1071.162410675701	2
0	10881	1071.162410675701	3
0	10891	1072.5	2
0	10916	1075	1
0	10941	1077.135893242545	2
0	10942	1077.135893242545	3
0	10946	1077.5	2
0	10971	1080	1
0	10987	1080.938671944602	2
0	10988	1080.938671944602	3
0	11006	1082.5	2
0	11036	1085	1
0	11042	1085.860711106215	2
0	11043	1085.860711106215	3
0	11061	1087.5	2
0	11091	1089.75394546525	3
0	11092	1089.75394546525	4
0	11096	1090	3
0	11126	1092.5	2
0	11146	1095	1
0	11152	1095.030010864294	2
0	11153	1095.030010864294	3
0	11176	1097.5	2
0	11201	1100	1
0	11210	1101.220825331883	2
0	11211	1101.220825331883	3
0	11231	1102.5	2
0	11256	1104.892803843168	3
0	11257	1104.892803843168	4
0	11261	1105	3
0	11286	1107.5	2
0	11311	1110	1
0	11317	1110.013836709605	2
0	11318	1110.013836709605	3
0	11346	1112.5	2
0	11366	1114.462257669711	3
0	11367	1114.462257669711	4
0	11371	1115	3
0	11391	1117.5	2
0	11411	1120	1
0	11436	1122.5	0
0	11445	1123.628589502554	1
0	11446	1123.628589502554	2
0	11466	1125	1
0	11488	1127.5	0
0	11494	1127.732366048885	1
0	11495	1127.732366048885	2
0	11523	1130	1
0	11540	1131.204703962025	2
0	11541	1131.204703962025	3
0	11548	1132.5	2
0	11573	1135	1
0	11595	1136.420241946778	2
0	11596	1136.420241946778	3
0	11603	1137.5	2
0	11628	1140	1
0	11656	1142.245152083418	2
0	11657	1142.245152083418	3
0	11658	1142.5	2
0	11683	1145	1
0	11703	1147.5	0
0	11712	1148.09143991237	1
0	11713	1148.09143991237	2
0	11730	1150	1
0	11752	1152.5	0
0	11758	1152.632953907875	1
0	11759	1152.632953907875	2
0	11787	1155	1
0	11804	1156.321628834644	2
0	11805	1156.321628834644	3
0	11817	1157.5	2
0	11842	1160	1
0	11859	1161.449830520068	2
0	11860	1161.449830520068	3
0	11867	1162.5	2
0	11897	1165	1
0	11911	1165.950280909231	2
0	11912	1165.950280909231	3
0	11922	1167.5	2
0	11957	1170	1
0	11969	1171.229868928467	2
0	11970	1171.229868928467	3
0	11982	1172.5	2
0	12007	1175	1
0	12018	1175.822568585161	2
0	12019	1175.822568585161	3
0	12042	1177.5	2
0	12067	1180	1
0	12079	1181.431905696274	2
0	12080	1181.431905696274	3
0	12087	1182.5	2
0	12122	1185	1
0	12128	1185.103723779305	2
0	12129	1185.103723779305	3
0	12157	1187.5	2
0	12177	1190	1
0	12183	1190.047033752927	2
0	12184	1190.047033752927	3
0	12212	1192.5	2
0	12235	1194.864448831834	3
0	12236	1194.864448831834	4
0	12237	1195	3
0	12257	1197.5	2
0	12287	1200	1
0	12293	1200.259704620128	2
0	12294	1200.259704620128	3
0	12312	1202.5	2
0	12337	1205	1
0	12357	1207.065402647591	2
0	12358	1207.065402647591	3
0	12362	1207.5	2
0	12382	1210	1
0	12407	1212.5	0
0	12413	1212.624054443303	1
0	12414	1212.624054443303	2
0	12434	1215	1
0	12456	1216.609134546702	2
0	12457	1216.609134546702	3
0	12466	1217.5	2
0	12491	1220	1
0	12514	1222.491505260511	2
0	12515	1222.491505260511	3
0	12516	1222.5	2
0	12541	1225	1
0	12566	1227.5	0
0	12572	1228.187353434052	1
0	12573	1228.187353434052	2
0	12596	1230	1
0	12616	1232.5	0
0	12628	1234.46131823738	1
0	12629	1234.46131823738	2
0	12633	1235	1
0	12650	1237.5	0
0	12656	1237.822561172633	1
0	12657	1237.822561172633	2
0	12666	1240	1
0	12685	1242.5	0
0	12691	1242.536759934535	1
0	12692	1242.536759934535	2
0	12709	1245	1
0	12720	1246.284217179344	2
0	12721	1246.284217179344	3
0	12734	1247.5	2
0	12759	1250	1
0	12781	1252.5	0
0	12787	1253.659572968836	1
0	12788	1253.659572968836	2
0	12803	1255	1
0	12822	1257.5	0
0	12831	1258.982373091429	1
0	12832	1258.982373091429	2
0	12839	1260	1
0	12871	1262.5	0
0	12877	1263.55030228392	1
0	12878	1263.55030228392	2
0	12896	1265	1
0	12921	1267.5	0
0	12927	1267.726325751791	1
0	12928	1267.726325751791	2
0	12948	1270	1
0	12978	1272.5	0
0	12984	1273.436825930798	1
0	12985	1273.436825930798	2
0	13013	1275	1
0	13019	1275.955803838906	2
0	13020	1275.955803838906	3
0	13033	1277.5	2
0	13058	1280	1
0	13083	1282.5	0
0	13089	1282.695349293706	1
0	13090	1282.695349293706	2
0	13113	1285	1
0	13138	1287.032989819209	2
0	13139	1287.032989819209	3
0	13140	1287.5	2
0	13160	1290	1
0	13185	1292.5	0
0	13194	1293.41787232002	1
0	13195	1293.41787232002	2
0	13207	1295	1
0	13229	1297.5	0
0	13235	1297.875597581625	1
0	13236	1297.875597581625	2
0	13261	1300	1
0	13286	1302.5	0
0	13295	1303.192522581299	1
0	13296	1303.192522581299	2
0	13316	1305	1
0	13322	1305.430652994474	2
0	13323	1305.430652994474	3
0	13346	1307.5	2
0	13381	1310	1
0	13390	1311.069882974	2
0	13391	1311.069882974	3
0	13406	1312.5	2
0	13436	1315	1
0	13445	1315.964783849468	2
0	13446	1315.964783849468	3
0	13471	1317.5	2
0	13494	1319.526665504648	3
0	13495	1319.526665504648	4
0	13496	1320	3
0	13521	1322.5	2
0	13527	1322.904637515029	3
0	13528	1322.904637515029	4
0	13546	1325	3
0	13576	1327.5	2
0	13582	1327.963214895825	3
0	13583	1327.963214895825	4
0	13601	1330	3
0	13626	1332.5	2
0	13651	1335	1
0	13657	1335.421877053701	2
0	13658	1335.421877053701	3
0	13676	1337.5	2
0	13701	1340	1
0	13729	1342.243079891032	2
0	13730	1342.243079891032	3
0	13731	1342.5	2
0	13756	1345	1
0	13762	1345.001123033952	2
0	13763	1345.001123033952	3
0	13786	1347.5	2
0	13816	1350	1
0	13830	1351.136687874702	2
0	13831	1351.136687874702	3
0	13846	1352.5	2
0	13871	1355	1
0	13877	1355.517467424541	2
0	13878	1355.517467424541	3
0	13896	1357.5	2
0	13926	1360	1
0	13932	1360.606156099249	2
0	13933	1360.606156099249	3
0	13956	1362.5	2
0	13986	1365	1
0	13992	1365.434545421487	2
0	13993	1365.434545421487	3
0	14016	1367.5	2
0	14022	1367.647668653119	3
0	14023	1367.647668653119	4
0	14046	1370	3
0	14071	1372.5	2
0	14077	1372.965483185593	3
0	14078	1372.965483185593	4
0	14096	1375	3
0	14131	1377.5	2
0	14154	1379.573804579369	3
0	14155	1379.573804579369	4
0	14156	1380	3
0	14181	1382.5	2
0	14206	1385	1
0	14215	1386.001085704959	2
0	14216	1386.001085704959	3
0	14236	1387.5	2
0	14253	1388.838484735033	3
0	14254	1388.838484735033	4
0	14266	1390	3
0	14291	1392.5	2
0	14297	1392.535815092219	3
0	14298	1392.535815092219	4
0	14331	1395	3
0	14337	1395.215552315134	4
0	14338	1395.215552315134	5
0	14356	1397.5	4
0	14376	1400	3
0	14406	1402.5	2
0	14412	1402.886635417369	3
0	14413	1402.886635417369	4
0	14431	1405	3
0	14461	1407.5	2
0	14481	1409.390700159765	3
0	14482	1409.390700159765	4
0	14486	1410	3
0	14516	1412.5	2
0	14536	1414.171575649484	3
0	14537	1414.171575649484	4
0	14541	1415	3
0	14566	1417.5	2
0	14572	1418.09087500791	3
0	14573	1418.09087500791	4
0	14596	1420	3
0	14616	1422.5	2
0	14636	1425	1
0	14642	1425.093641246545	2
0	14643	1425.093641246545	3
0	14671	1427.5	2
0	14693	1428.859953252343	3
0	14694	1428.859953252343	4
0	14701	1430	3
0	14744	1432.457318045338	4
0	14745	1432.457318045338	5
0	14746	1432.5	4
0	14766	1435	3
0	14796	1437.5	2
0	14802	1437.625512165708	3
0	14803	1437.625512165708	4
0	14826	1440	3
0	14832	1440.076271472931	4
0	14833	1440.076271472931	5
0	14856	1442.5	4
0	14886	1445	3
0	14906	1446.69508591915	4
0	14907	1446.69508591915	5
0	14911	1447.5	4
0	14941	1450	3
0	14961	1451.601481451692	4
0	14962	1451.601481451692	5
0	14971	1452.5	4
0	15001	1455	3
0	15010	1455.948757256144	4
0	15011	1455.948757256144	5
0	15031	1457.5	4
0	15037	1457.944252282033	5
0	15038	1457.944252282033	6
0	15056	1460	5
0	15086	1462.5	4
0	15111	1465	3
0	15120	1465.844569034606	4
0	15121	1465.844569034606	5
0	15136	1467.5	4
0	15155	1468.283304969686	5
0	15156	1468.283304969686	6
0	15171	1470	5
0	15201	1472.5	4
0	15221	1474.433929899496	5
0	15222	1474.433929899496	6
0	15226	1475	5
0	15256	1477.5	4
0	15262	1478.041162117613	5
0	15263	1478.041162117613	6
0	15291	1480	5
0	15319	1482.356397005323	6
0	15320	1482.356397005323	7
0	15321	1482.5	6
0	15346	1485	5
0	15352	1485.11019078582	6
0	15353	1485.11019078582	7
0	15381	1487.5	6
0	15406	1490	5
0	15412	1490.18810738504	6
0	15413	1490.18810738504	7
0	15431	1492.5	6
0	15456	1495	5
0	15476	1497.5	4
0	15482	1497.860124448801	5
0	15483	1497.860124448801	6
0	15501	1500	5
0	15531	1502.5	4
0	15551	1505	3
0	15560	1505.725070405796	4
0	15561	1505.725070405796	5
0	15571	1507.5	4
0	15596	1510	3
0	15602	1510.455410865295	4
0	15603	1510.455410865295	5
0	15621	1512.5	4
0	15651	1515	3
0	15676	1517.5	2
0	15685	1518.128915602057	3
0	15686	1518.128915602057	4
0	15706	1520	3
0	15712	1520.057025696205	4
0	15713	1520.057025696205	5
0	15741	1522.5	4
0	15766	1525	3
0	15780	1525.873772670788	4
0	15781	1525.873772670788	5
0	15796	1527.5	4
0	15821	1530	3
0	15841	1532.5	2
0	15847	1532.515774092405	3
0	15848	1532.515774092405	4
0	15871	1535	3
0	15896	1537.5	2
0	15902	1538.069992882603	3
0	15903	1538.069992882603	4
0	15926	1540	3
0	15932	1540.44553990232	4
0	15933	1540.44553990232	5
0	15956	1542.5	4
0	15981	1545	3
0	15995	1546.161318300622	4
0	15996	1546.161318300622	5
0	16011	1547.5	4
0	16041	1550	3
0	16061	1551.437194634491	4
0	16062	1551.437194634491	5
0	16071	1552.5	4
0	16091	1555	3
0	16097	1555.467036071206	4
0	16098	1555.467036071206	5
0	16126	1557.5	4
0	16156	1560	3
0	16165	1560.819706805824	4
0	16166	1560.819706805824	5
0	16181	1562.5	4
0	16201	1565	3
0	16207	1565.040277128182	4
0	16208	1565.040277128182	5
0	16231	1567.5	4
0	16256	1570	3
0	16262	1570.226144772368	4
0	16263	1570.226144772368	5
0	16281	1572.5	4
0	16306	1575	3
0	16326	1577.5	2
0	16332	1577.651165100359	3
0	16333	1577.651165100359	4
0	16366	1580	3
0	16391	1582.5	2
0	16397	1583.034071079578	3
0	16398	1583.034071079578	4
0	16416	1585	3
0	16446	1587.5	2
0	16455	1588.140650809877	3
0	16456	1588.140650809877	4
0	16471	1590	3
0	16496	1592.5	2
0	16502	1593.024154268788	3
0	16503	1593.024154268788	4
0	16526	1595	3
0	16551	1597.5	2
0	16571	1600	1
0	16580	1600.74295365511	2
0	16581	1600.74295365511	3
0	16601	1602.5	2
0	16607	1602.85194691224	3
0	16608	1602.85194691224	4
0	16636	1605	3
0	16661	1607.5	2
0	16681	1610	1
0	16687	1610.201400703375	2
0	16688	1610.201400703375	3
0	16711	1612.5	2
0	16717	1612.672301977244	3
0	16718	1612.672301977244	4
0	16741	1615	3
0	16771	1617.5	2
0	16791	1620	1
0	16800	1620.742086835367	2
0	16801	1620.742086835367	3
0	16816	1622.5	2
0	16841	1625	1
0	16864	1627.180079141435	2
0	16865	1627.180079141435	3
0	16866	1627.5	2
0	16891	1630	1
0	16916	1632.5	0
0	16925	1633.498164416092	1
0	16926	1633.498164416092	2
0	16936	1635	1
0	16966	1637.5	0
0	16978	1639.024530779571	1
0	16979	1639.024530779571	2
0	16986	1640	1
0	17013	1642.5	0
0	17019	1643.265853251549	1
0	17020	1643.265853251549	2
0	17030	1645	1
0	17052	1647.5	0
0	17058	1647.634042646163	1
0	17059	1647.634042646163	2
0	17081	1650	1
0	17087	1650.414266999792	2
0	17088	1650.414266999792	3
0	17106	1652.5	2
0	17136	1655	1
0	17142	1655.686346185934	2
0	17143	1655.686346185934	3
0	17161	1657.5	2
0	17191	1660	1
0	17211	1662.5	0
0	17217	1662.661626655552	1
0	17218	1662.661626655552	2
0	17241	1665	1
0	17258	1667.5	0
0	17264	1667.513958352227	1
0	17265	1667.513958352227	2
0	17293	1670	1
0	17304	1670.229295682249	2
0	17305	1670.229295682249	3
0	17333	1672.5	2
0	17353	1675	1
0	17359	1675.506744909523	2
0	17360	1675.506744909523	3
0	17383	1677.5	2
0	17403	1680	1
0	17414	1680.514821448825	2