version 3
run k_MM1_lbqf-29-20221127-16:03:36-25264
attr configname k_MM1_lbqf
attr datetime 20221127-16:03:36
attr datetimef 20221127-160336
attr experiment k_MM1_lbqf
attr inifile omnetpp.ini
attr iterationvars "$time=2.5, $num=5, $0=45732, $1=35463, $2=67563"
attr iterationvarsd time=2.5/num=5/45732/35463/67563
attr iterationvarsf time=2.5,num=5,45732,35463,67563-
attr measurement "$time=2.5, $num=5, $0=45732, $1=35463, $2=67563"
attr network lbqfkMM1
attr processid 25264
attr repetition 1
attr replication #1
attr resultdir results
attr runnumber 29
attr seedset 29
itervar num 5
itervar time 2.5
config description "MM1 module k-times lbqf"
config network lbqfkMM1
config **.interArrivalTime "truncnormal(uniform(0.5s, 1.5s), uniform(0.25s, 0.75s))"
config **.serviceTime 2.5s
config **.c 5
config **.capacity 10000
config record-eventlog false
config **.scalar-recording true
config **.vector-recording true
config repeat 4
config seed-1-mt 45732
config seed-2-mt 35463
config seed-3-mt 67563
config output-vector-file k_MM1_lbqf-5-2.5-results/1.vec
config output-scalar-file k_MM1_lbqf-5-2.5-results/1.sca

vector 0 lbqfkMM1.mm1[0] queueLength:vector ETV
attr interpolationmode none
attr recordingmode vector
attr title "queue length"
vector 1 lbqfkMM1.mm1[1] queueLength:vector ETV
attr interpolationmode none
attr recordingmode vector
attr title "queue length"
vector 2 lbqfkMM1.mm1[2] queueLength:vector ETV
attr interpolationmode none
attr recordingmode vector
attr title "queue length"
vector 3 lbqfkMM1.mm1[0] util:vector ETV
attr interpolationmode none
attr recordingmode vector
attr title resources
vector 4 lbqfkMM1.mm1[3] queueLength:vector ETV
attr interpolationmode none
attr recordingmode vector
attr title "queue length"
vector 5 lbqfkMM1.mm1[1] util:vector ETV
attr interpolationmode none
attr recordingmode vector
attr title resources
vector 6 lbqfkMM1.mm1[2] util:vector ETV
attr interpolationmode none
attr recordingmode vector
attr title resources
vector 7 lbqfkMM1.mm1[3] util:vector ETV
attr interpolationmode none
attr recordingmode vector
attr title resources
vector 8 lbqfkMM1.mm1[4] queueLength:vector ETV
attr interpolationmode none
attr recordingmode vector
attr title "queue length"
vector 9 lbqfkMM1.mm1[4] util:vector ETV
attr interpolationmode none
attr recordingmode vector
attr title resources
0	5	10	1
0	16	12.5	0
0	22	12.681316499233	1
0	23	12.681316499233	2
0	35	15	1
0	57	17.5	0
0	63	17.527275484381	1
0	64	17.527275484381	2
0	84	20	1
0	106	22.5	0
0	112	23.32118472919	1
0	113	23.32118472919	2
0	128	25	1
0	155	27.5	0
0	161	28.098397929917	1
0	162	28.098397929917	2
0	180	30	1
0	200	32.5	0
0	206	32.774943626145	1
0	207	32.774943626145	2
0	222	35	1
0	236	37.5	0
0	242	37.813086985098	1
0	243	37.813086985098	2
0	255	40	1
0	269	42.5	0
0	275	42.732984016571	1
0	276	42.732984016571	2
0	288	45	1
0	307	47.5	0
0	316	48.685046718715	1
0	317	48.685046718715	2
0	324	50	1
0	351	52.5	0
0	357	52.581387467973	1
0	358	52.581387467973	2
0	383	55	1
0	408	57.5	0
0	414	57.833470173733	1
0	415	57.833470173733	2
0	428	60	1
0	458	62.5	0
0	467	63.546800741671	1
0	468	63.546800741671	2
0	483	65	1
0	510	67.5	0
0	516	67.874047870502	1
0	517	67.874047870502	2
0	530	70	1
0	560	72.5	0
0	566	73.232163066973	1
0	567	73.232163066973	2
0	582	75	1
0	604	77.5	0
0	610	78.258555169409	1
0	611	78.258555169409	2
0	631	80	1
0	661	82.5	0
0	673	83.971944340569	1
0	674	83.971944340569	2
0	681	85	1
0	716	87.5	0
0	728	88.647823114139	1
0	729	88.647823114139	2
0	741	90	1
0	768	91.728519418885	2
0	769	91.728519418885	3
0	776	92.5	2
0	801	95	1
0	812	95.408529267482	2
0	813	95.408529267482	3
0	831	97.5	2
0	861	100	1
0	867	100.334239010379	2
0	868	100.334239010379	3
0	886	102.5	2
0	921	104.846716534825	3
0	922	104.846716534825	4
0	926	105	3
0	951	107.5	2
0	976	110	1
0	982	110.490823267743	2
0	983	110.490823267743	3
0	1001	112.5	2
0	1031	115	1
0	1046	117.194591089826	2
0	1047	117.194591089826	3
0	1051	117.5	2
0	1076	120	1
0	1101	121.866005267236	2
0	1102	121.866005267236	3
0	1106	122.5	2
0	1131	125	1
0	1156	127.5	0
0	1162	128.13550912608	1
0	1163	128.13550912608	2
0	1186	130	1
0	1211	132.183272994436	2
0	1212	132.183272994436	3
0	1216	132.5	2
0	1241	135	1
0	1266	137.24068679182	2
0	1267	137.24068679182	3
0	1271	137.5	2
0	1296	140	1
0	1321	142.5	0
0	1330	143.446544343123	1
0	1331	143.446544343123	2
0	1346	145	1
0	1366	147.5	0
0	1378	148.612941694728	1
0	1379	148.612941694728	2
0	1393	150	1
0	1415	151.976695211898	2
0	1416	151.976695211898	3
0	1417	152.5	2
0	1442	155	1
0	1467	156.748469533004	2
0	1468	156.748469533004	3
0	1472	157.5	2
0	1502	160	1
0	1525	161.880754505081	2
0	1526	161.880754505081	3
0	1527	162.5	2
0	1557	165	1
0	1577	166.819911163533	2
0	1578	166.819911163533	3
0	1587	167.5	2
0	1612	170	1
0	1629	171.151127184245	2
0	1630	171.151127184245	3
0	1642	172.5	2
0	1672	175	1
0	1684	176.086553129813	2
0	1685	176.086553129813	3
0	1697	177.5	2
0	1727	180	1
0	1736	180.78633886477	2
0	1737	180.78633886477	3
0	1757	182.5	2
0	1782	185	1
0	1788	185.196377641227	2
0	1789	185.196377641227	3
0	1807	187.5	2
0	1837	190	1
0	1843	190.135777989383	2
0	1844	190.135777989383	3
0	1857	192.5	2
0	1887	195	1
0	1904	196.197997572	2
0	1905	196.197997572	3
0	1917	197.5	2
0	1942	200	1
0	1956	200.904867406922	2
0	1957	200.904867406922	3
0	1972	202.5	2
0	1992	205	1
0	2017	207.5	0
0	2026	208.053908700936	1
0	2027	208.053908700936	2
0	2047	210	1
0	2072	212.5	0
0	2081	213.444691300497	1
0	2082	213.444691300497	2
0	2107	215	1
0	2127	217.5	0
0	2136	218.44565924255	1
0	2137	218.44565924255	2
0	2147	220	1
0	2172	222.5	0
0	2178	222.588436870633	1
0	2179	222.588436870633	2
0	2201	225	1
0	2223	227.5	0
0	2232	228.707351856141	1
0	2233	228.707351856141	2
0	2243	230	1
0	2268	232.5	0
0	2274	232.746817733325	1
0	2275	232.746817733325	2
0	2300	235	1
0	2320	237.5	0
0	2326	237.678874973342	1
0	2327	237.678874973342	2
0	2355	240	1
0	2372	242.5	0
0	2378	242.615495811906	1
0	2379	242.615495811906	2
0	2407	245	1
0	2427	246.94489756858	2
0	2428	246.94489756858	3
0	2437	247.5	2
0	2467	250	1
0	2473	250.935821089716	2
0	2474	250.935821089716	3
0	2497	252.5	2
0	2522	254.796783545266	3
0	2523	254.796783545266	4
0	2532	255	3
0	2552	257.5	2
0	2577	260	1
0	2583	260.667364443432	2
0	2584	260.667364443432	3
0	2607	262.5	2
0	2637	265	1
0	2649	266.370338597593	2
0	2650	266.370338597593	3
0	2657	267.5	2
0	2687	270	1
0	2693	270.65993716173	2
0	2694	270.65993716173	3
0	2717	272.5	2
0	2737	275	1
0	2754	276.653242167475	2
0	2755	276.653242167475	3
0	2772	277.5	2
0	2797	280	1
0	2803	280.684095354289	2
0	2804	280.684095354289	3
0	2827	282.5	2
0	2849	284.202763211009	3
0	2850	284.202763211009	4
0	2857	285	3
0	2882	287.5	2
0	2907	289.724017297883	3
0	2908	289.724017297883	4
0	2912	290	3
0	2937	292.5	2
0	2962	295	1
0	2968	295.757512459744	2
0	2969	295.757512459744	3
0	2992	297.5	2
0	3008	298.457970767958	3
0	3009	298.457970767958	4
0	3027	300	3
0	3052	302.5	2
0	3063	303.320244094236	3
0	3064	303.320244094236	4
0	3087	305	3
0	3112	307.5	2
0	3118	307.638500425816	3
0	3119	307.638500425816	4
0	3137	310	3
0	3167	312.5	2
0	3173	313.463327201711	3
0	3174	313.463327201711	4
0	3192	315	3
0	3217	317.5	2
0	3228	318.503368833994	3
0	3229	318.503368833994	4
0	3242	320	3
0	3267	322.5	2
0	3292	325	1
0	3298	325.825699900823	2
0	3299	325.825699900823	3
0	3322	327.5	2
0	3347	330	1
0	3353	330.001908024312	2
0	3354	330.001908024312	3
0	3377	332.5	2
0	3393	333.546970163922	3
0	3394	333.546970163922	4
0	3417	335	3
0	3442	337.5	2
0	3451	338.644463151767	3
0	3452	338.644463151767	4
0	3467	340	3
0	3492	342.5	2
0	3512	344.550332373029	3
0	3513	344.550332373029	4
0	3522	345	3
0	3552	347.5	2
0	3564	348.742858776575	3
0	3565	348.742858776575	4
0	3577	350	3
0	3602	352.5	2
0	3619	354.315792792016	3
0	3620	354.315792792016	4
0	3627	355	3
0	3652	357.5	2
0	3677	360	1
0	3683	360.100336302794	2
0	3684	360.100336302794	3
0	3707	362.5	2
0	3723	363.462032384033	3
0	3724	363.462032384033	4
0	3737	365	3
0	3762	367.5	2
0	3787	370	1
0	3793	370.370468633689	2
0	3794	370.370468633689	3
0	3807	372.5	2
0	3837	375	1
0	3857	376.995679837336	2
0	3858	376.995679837336	3
0	3862	377.5	2
0	3887	380	1
0	3912	382.215535686454	2
0	3913	382.215535686454	3
0	3914	382.5	2
0	3939	385	1
0	3967	387.307448397209	2
0	3968	387.307448397209	3
0	3969	387.5	2
0	3994	390	1
0	4022	392.313582611919	2
0	4023	392.313582611919	3
0	4024	392.5	2
0	4049	395	1
0	4069	397.5	0
0	4078	397.58760801998	1
0	4079	397.58760801998	2
0	4096	400	1
0	4113	402.5	0
0	4119	402.542266598946	1
0	4120	402.542266598946	2
0	4140	405	1
0	4157	407.5	0
0	4163	408.309540263298	1
0	4164	408.309540263298	2
0	4184	410	1
0	4206	411.599864898805	2
0	4207	411.599864898805	3
0	4216	412.5	2
0	4241	415	1
0	4264	417.070191935023	2
0	4265	417.070191935023	3
0	4266	417.5	2
0	4291	420	1
0	4319	421.985332402862	2
0	4320	421.985332402862	3
0	4321	422.5	2
0	4341	425	1
0	4374	427.291357189998	2
0	4375	427.291357189998	3
0	4376	427.5	2
0	4396	430	1
0	4426	432.5	0
0	4432	433.344811194601	1
0	4433	433.344811194601	2
0	4451	435	1
0	4481	437.5	0
0	4487	437.958133406182	1
0	4488	437.958133406182	2
0	4506	440	1
0	4536	442.5	0
0	4545	443.683525735273	1
0	4546	443.683525735273	2
0	4561	445	1
0	4591	447.5	0
0	4597	447.581930508599	1
0	4598	447.581930508599	2
0	4616	450	1
0	4646	452.5	0
0	4655	453.565365851675	1
0	4656	453.565365851675	2
0	4676	455	1
0	4701	457.5	0
0	4707	458.251648790738	1
0	4708	458.251648790738	2
0	4726	460	1
0	4751	462.5	0
0	4757	462.502560399365	1
0	4758	462.502560399365	2
0	4773	465	1
0	4797	466.78315760665	2
0	4798	466.78315760665	3
0	4805	467.5	2
0	4835	470	1
0	4852	471.705026610539	2
0	4853	471.705026610539	3
0	4860	472.5	2
0	4890	475	1
0	4907	476.262140580802	2
0	4908	476.262140580802	3
0	4920	477.5	2
0	4945	480	1
0	4968	482.47461972823	2
0	4969	482.47461972823	3
0	4970	482.5	2
0	5000	485	1
0	5017	486.379900178587	2
0	5018	486.379900178587	3
0	5030	487.5	2
0	5050	490	1
0	5075	492.5	0
0	5087	493.646672359601	1
0	5088	493.646672359601	2
0	5095	495	1
0	5130	497.5	0
0	5136	498.297712249233	1
0	5137	498.297712249233	2
0	5155	500	1
0	5180	502.5	0
0	5186	502.79689986015	1
0	5187	502.79689986015	2
0	5207	505	1
0	5232	507.5	0
0	5244	508.643044270839	1
0	5245	508.643044270839	2
0	5257	510	1
0	5284	512.5	0
0	5290	512.784592959814	1
0	5291	512.784592959814	2
0	5309	515	1
0	5334	517.5	0
0	5340	517.692744024914	1
0	5341	517.692744024914	2
0	5366	520	1
0	5391	522.5	0
0	5409	524.861013448766	1
0	5410	524.861013448766	2
0	5411	525	1
0	5431	527.5	0
0	5440	527.987891014401	1
0	5441	527.987891014401	2
0	5445	530	1
0	5461	532.5	0
0	5467	532.979874667738	1
0	5468	532.979874667738	2
0	5480	535	1
0	5494	537.5	0
0	5500	537.87330353338	1
0	5501	537.87330353338	2
0	5508	540	1
0	5537	542.5	0
0	5546	543.749233147276	1
0	5547	543.749233147276	2
0	5562	545	1
0	5592	547.5	0
0	5598	548.051534410728	1
0	5599	548.051534410728	2
0	5622	550	1
0	5647	552.5	0
0	5653	552.661917269139	1
0	5654	552.661917269139	2
0	5677	555	1
0	5702	557.5	0
0	5708	558.163359057301	1
0	5709	558.163359057301	2
0	5727	560	1
0	5757	562.5	0
0	5763	563.367238446595	1
0	5764	563.367238446595	2
0	5782	565	1
0	5815	567.495026108357	2
0	5816	567.495026108357	3
0	5817	567.5	2
0	5842	570	1
0	5867	572.5	0
0	5876	573.704290475383	1
0	5877	573.704290475383	2
0	5887	575	1
0	5912	577.5	0
0	5918	577.761160412722	1
0	5919	577.761160412722	2
0	5931	580	1
0	5950	582.5	0
0	5956	582.732313042369	1
0	5957	582.732313042369	2
0	5972	585	1
0	5989	587.5	0
0	5995	588.031748017487	1
0	5996	588.031748017487	2
0	6018	590	1
0	6040	591.902802379412	2
0	6041	591.902802379412	3
0	6045	592.5	2
0	6080	595	1
0	6095	596.258492886647	2
0	6096	596.258492886647	3
0	6105	597.5	2
0	6130	600	1
0	6150	602.5	0
0	6159	603.551010605023	1
0	6160	603.551010605023	2
0	6175	605	1
0	6205	607.5	0
0	6211	608.002691952192	1
0	6212	608.002691952192	2
0	6230	610	1
0	6255	612.5	0
0	6261	612.976971264817	1
0	6262	612.976971264817	2
0	6277	615	1
0	6304	617.5	0
0	6310	618.420439752683	1
0	6311	618.420439752683	2
0	6329	620	1
0	6359	622.5	0
0	6365	623.139027519355	1
0	6366	623.139027519355	2
0	6394	625	1
0	6411	626.867442909165	2
0	6412	626.867442909165	3
0	6419	627.5	2
0	6444	630	1
0	6469	632.5	0
0	6475	632.548298406104	1
0	6476	632.548298406104	2
0	6509	635	1
0	6515	635.589580696351	2
0	6516	635.589580696351	3
0	6549	637.5	2
0	6555	637.992299454349	3
0	6556	637.992299454349	4
0	6579	640	3
0	6604	642.5	2
0	6610	643.332438018602	3
0	6611	643.332438018602	4
0	6629	645	3
0	6659	647.5	2
0	6674	649.500315870914	3
0	6675	649.500315870914	4
0	6679	650	3
0	6699	652.5	2
0	6715	653.43823421907	3
0	6716	653.43823421907	4
0	6739	655	3
0	6769	657.5	2
0	6775	658.486439155333	3
0	6776	658.486439155333	4
0	6794	660	3
0	6819	662.5	2
0	6836	663.948809482109	3
0	6837	663.948809482109	4
0	6849	665	3
0	6869	667.5	2
0	6894	669.642693810459	3
0	6895	669.642693810459	4
0	6899	670	3
0	6929	672.5	2
0	6949	675	1
0	6955	675.400626164833	2
0	6956	675.400626164833	3
0	6974	677.5	2
0	6999	680	1
0	7013	681.242934464548	2
0	7014	681.242934464548	3
0	7024	682.5	2
0	7054	685	1
0	7071	686.882308092386	2
0	7072	686.882308092386	3
0	7079	687.5	2
0	7099	690	1
0	7129	692.380795969918	2
0	7130	692.380795969918	3
0	7134	692.5	2
0	7159	695	1
0	7184	697.5	0
0	7190	697.66954392635	1
0	7191	697.66954392635	2
0	7209	700	1
0	7234	702.5	0
0	7240	702.502210120589	1
0	7241	702.502210120589	2
0	7264	705	1
0	7289	707.5	0
0	7295	708.086490776428	1
0	7296	708.086490776428	2
0	7319	710	1
0	7341	712.087566656558	2
0	7342	712.087566656558	3
0	7346	712.5	2
0	7371	715	1
0	7396	717.140196013772	2
0	7397	717.140196013772	3
0	7401	717.5	2
0	7421	720	1
0	7446	722.5	0
0	7452	722.520434699136	1
0	7453	722.520434699136	2
0	7463	725	1
0	7485	727.5	0
0	7494	728.57852061253	1
0	7495	728.57852061253	2
0	7504	730	1
0	7523	732.5	0
0	7529	733.257926477092	1
0	7530	733.257926477092	2
0	7545	735	1
0	7567	737.5	0
0	7573	738.138566320652	1
0	7574	738.138566320652	2
0	7589	740	1
0	7616	742.5	0
0	7622	742.985965084357	1
0	7623	742.985965084357	2
0	7641	745	1
0	7661	747.5	0
0	7667	747.668922573895	1
0	7668	747.668922573895	2
0	7680	750	1
0	7707	752.5	0
0	7713	752.68586143441	1
0	7714	752.68586143441	2
0	7729	755	1
0	7756	757.5	0
0	7762	758.079801805456	1
0	7763	758.079801805456	2
0	7786	760	1
0	7811	762.5	0
0	7817	762.534269470728	1
0	7818	762.534269470728	2
0	7846	765	1
0	7863	766.867079999614	2
0	7864	766.867079999614	3
0	7871	767.5	2
0	7896	770	1
0	7907	770.332616412517	2
0	7908	770.332616412517	3
0	7926	772.5	2
0	7946	775	1
0	7971	777.5	0
0	7977	777.547836724255	1
0	7978	777.547836724255	2
0	7998	780	1
0	8023	782.5	0
0	8029	782.673374066648	1
0	8030	782.673374066648	2
0	8053	785	1
0	8078	787.5	0
0	8084	787.591271455893	1
0	8085	787.591271455893	2
0	8113	790	1
0	8119	790.106027806894	2
0	8120	790.106027806894	3
0	8138	792.5	2
0	8158	795	1
0	8193	797.5	0
0	8205	799.34686863712	1
0	8206	799.34686863712	2
0	8213	800	1
0	8233	802.5	0
0	8239	802.551144945514	1
0	8240	802.551144945514	2
0	8255	805	1
0	8276	807.5	0
0	8285	807.798225406352	1
0	8286	807.798225406352	2
0	8306	810	1
0	8334	811.764955211208	2
0	8335	811.764955211208	3
0	8336	812.5	2
0	8366	815	1
0	8386	816.308523766412	2
0	8387	816.308523766412	3
0	8396	817.5	2
0	8426	820	1
0	8435	820.205684542653	2
0	8436	820.205684542653	3
0	8461	822.5	2
0	8481	824.030734195533	3
0	8482	824.030734195533	4
0	8491	825	3
0	8524	826.988596185831	4
0	8525	826.988596185831	5
0	8526	827.5	4
0	8551	830	3
0	8576	832.5	2
0	8585	832.848711039981	3
0	8586	832.848711039981	4
0	8606	835	3
0	8634	837.458945172394	4
0	8635	837.458945172394	5
0	8636	837.5	4
0	8656	840	3
0	8681	842.5	2
0	8701	843.817614146016	3
0	8702	843.817614146016	4
0	8711	845	3
0	8736	847.5	2
0	8759	849.546275836606	3
0	8760	849.546275836606	4
0	8761	850	3
0	8791	852.5	2
0	8811	855	1
0	8817	855.036016634996	2
0	8818	855.036016634996	3
0	8836	857.5	2
0	8861	860	1
0	8881	861.575472888723	2
0	8882	861.575472888723	3
0	8891	862.5	2
0	8916	865	1
0	8939	867.145064223766	2
0	8940	867.145064223766	3
0	8946	867.5	2
0	8976	870	1
0	8985	870.258344720421	2
0	8986	870.258344720421	3
0	9016	872.5	2
0	9025	873.549977812053	3
0	9026	873.549977812053	4
0	9041	875	3
0	9071	877.5	2
0	9080	878.547965350422	3
0	9081	878.547965350422	4
0	9096	880	3
0	9126	882.5	2
0	9144	884.295804214203	3
0	9145	884.295804214203	4
0	9146	885	3
0	9184	887.223288375731	4
0	9185	887.223288375731	5
0	9186	887.5	4
0	9211	890	3
0	9226	892.5	2
0	9246	895	1
0	9269	897.394500795544	2
0	9270	897.394500795544	3
0	9271	897.5	2
0	9296	900	1
0	9324	902.16355458923	2
0	9325	902.16355458923	3
0	9326	902.5	2
0	9351	905	1
0	9370	905.505023595381	2
0	9371	905.505023595381	3
0	9386	907.5	2
0	9411	910	1
0	9431	911.635599768978	2
0	9432	911.635599768978	3
0	9436	912.5	2
0	9461	915	1
0	9486	917.5	0
0	9492	917.611049953226	1
0	9493	917.611049953226	2
0	9521	920	1
0	9535	921.049912210896	2
0	9536	921.049912210896	3
0	9551	922.5	2
0	9581	925	1
0	9590	925.536568568078	2
0	9591	925.536568568078	3
0	9611	927.5	2
0	9631	930	1
0	9651	931.336174565385	2
0	9652	931.336174565385	3
0	9661	932.5	2
0	9686	935	1
0	9706	936.254402953523	2
0	9707	936.254402953523	3
0	9711	937.5	2
0	9741	940	1
0	9761	941.196649765348	2
0	9762	941.196649765348	3
0	9776	942.5	2
0	9801	945	1
0	9810	945.808567469094	2
0	9811	945.808567469094	3
0	9826	947.5	2
0	9856	950	1
0	9865	950.239023423613	2
0	9866	950.239023423613	3
0	9896	952.5	2
0	9905	953.221000502759	3
0	9906	953.221000502759	4
0	9921	955	3
0	9941	957.5	2
0	9966	960	1
0	9972	960.044305801019	2
0	9973	960.044305801019	3
0	9996	962.5	2
0	10024	964.581972077892	3
0	10025	964.581972077892	4
0	10026	965	3
0	10051	967.5	2
0	10076	970	1
0	10085	970.835033128864	2
0	10086	970.835033128864	3
0	10111	972.5	2
0	10131	973.819602170339	3
0	10132	973.819602170339	4
0	10136	975	3
0	10166	977.5	2
0	10186	979.104434967478	3
0	10187	979.104434967478	4
0	10191	980	3
0	10226	982.5	2
0	10241	983.861660264849	3
0	10242	983.861660264849	4
0	10256	985	3
0	10281	986.749363163471	4
0	10282	986.749363163471	5
0	10286	987.5	4
0	10311	990	3
0	10336	992.5	2
0	10345	993.108900834382	3
0	10346	993.108900834382	4
0	10366	995	3
0	10391	997.5	2
0	10400	997.950041447319	3
0	10401	997.950041447319	4
0	10421	1000	3
0	10449	1002.031740412903	4
0	10450	1002.031740412903	5
0	10451	1002.5	4
0	10471	1005	3
0	10496	1007.5	2
0	10510	1007.948903723509	3
0	10511	1007.948903723509	4
0	10531	1010	3
0	10559	1012.289693343344	4
0	10560	1012.289693343344	5
0	10561	1012.5	4
0	10591	1015	3
0	10614	1017.408123145554	4
0	10615	1017.408123145554	5
0	10616	1017.5	4
0	10646	1020	3
0	10663	1021.072421441937	4
0	10664	1021.072421441937	5
0	10686	1022.5	4
0	10706	1025	3
0	10718	1026.100676646562	4
0	10719	1026.100676646562	5
0	10726	1027.5	4
0	10751	1030	3
0	10776	1032.5	2
0	10788	1033.594868338523	3
0	10789	1033.594868338523	4
0	10796	1035	3
0	10821	1037.5	2
0	10846	1040	1
0	10861	1041.259369394507	2
0	10862	1041.259369394507	3
0	10871	1042.5	2
0	10896	1045	1
0	10919	1047.449994234528	2
0	10920	1047.449994234528	3
0	10921	1047.5	2
0	10946	1050	1
0	10971	1052.5	0
0	10980	1053.371920207941	1
0	10981	1053.371920207941	2
0	10996	1055	1
0	11026	1057.5	0
0	11032	1057.840360581532	1
0	11033	1057.840360581532	2
0	11056	1060	1
0	11084	1062.358574105233	2
0	11085	1062.358574105233	3
0	11086	1062.5	2
0	11116	1065	1
0	11133	1066.187299566894	2
0	11134	1066.187299566894	3
0	11146	1067.5	2
0	11171	1070	1
0	11188	1071.147771781299	2
0	11189	1071.147771781299	3
0	11201	1072.5	2
0	11221	1075	1
0	11249	1077.082503905075	2
0	11250	1077.082503905075	3
0	11251	1077.5	2
0	11281	1080	1
0	11301	1082.5	0
0	11310	1083.068832811406	1
0	11311	1083.068832811406	2
0	11326	1085	1
0	11351	1087.5	0
0	11360	1088.12170306527	1
0	11361	1088.12170306527	2
0	11373	1090	1
0	11400	1092.5	0
0	11406	1093.017998830761	1
0	11407	1093.017998830761	2
0	11430	1095	1
0	11452	1096.170784900346	2
0	11453	1096.170784900346	3
0	11460	1097.5	2
0	11485	1100	1
0	11510	1102.5	0
0	11519	1103.231351851003	1
0	11520	1103.231351851003	2
0	11540	1105	1
0	11565	1107.5	0
0	11571	1107.815102884454	1
0	11572	1107.815102884454	2
0	11595	1110	1
0	11620	1111.893514214368	2
0	11621	1111.893514214368	3
0	11625	1112.5	2
0	11655	1115	1
0	11670	1117.5	0
0	11676	1117.500224445549	1
0	11677	1117.500224445549	2
0	11697	1120	1
0	11719	1122.5	0
0	11728	1123.325479537989	1
0	11729	1123.325479537989	2
0	11744	1125	1
0	11769	1127.5	0
0	11775	1127.654342830471	1
0	11776	1127.654342830471	2
0	11791	1130	1
0	11813	1132.5	0
0	11819	1132.699782298433	1
0	11820	1132.699782298433	2
0	11850	1135	1
0	11856	1135.69844905237	2
0	11857	1135.69844905237	3
0	11875	1137.5	2
0	11905	1140	1
0	11911	1140.650277518712	2
0	11912	1140.650277518712	3
0	11930	1142.5	2
0	11955	1145	1
0	11980	1147.064300648674	2
0	11981	1147.064300648674	3
0	11985	1147.5	2
0	12015	1150	1
0	12035	1152.5	0
0	12041	1152.764410346796	1
0	12042	1152.764410346796	2
0	12070	1155	1
0	12076	1155.858192347348	2
0	12077	1155.858192347348	3
0	12105	1157.5	2
0	12130	1160	1
0	12136	1160.094334120429	2
0	12137	1160.094334120429	3
0	12160	1162.5	2
0	12171	1163.447459701428	3
0	12172	1163.447459701428	4
0	12190	1165	3
0	12225	1167.5	2
0	12231	1167.542805712663	3
0	12232	1167.542805712663	4
0	12255	1170	3
0	12280	1172.5	2
0	12286	1172.725913524375	3
0	12287	1172.725913524375	4
0	12315	1175	3
0	12321	1175.611124051522	4
0	12322	1175.611124051522	5
0	12340	1177.5	4
0	12365	1180	3
0	12393	1182.443206803652	4
0	12394	1182.443206803652	5
0	12395	1182.5	4
0	12420	1185	3
0	12448	1187.494009008971	4
0	12449	1187.494009008971	5
0	12450	1187.5	4
0	12470	1190	3
0	12495	1192.5	2
0	12501	1192.570262842364	3
0	12502	1192.570262842364	4
0	12525	1195	3
0	12550	1197.5	2
0	12556	1197.546778631921	3
0	12557	1197.546778631921	4
0	12580	1200	3
0	12600	1202.5	2
0	12625	1205	1
0	12631	1205.383932470033	2
0	12632	1205.383932470033	3
0	12655	1207.5	2
0	12675	1210	1
0	12681	1210.590255756441	2
0	12682	1210.590255756441	3
0	12700	1212.5	2
0	12725	1215	1
0	12750	1217.5	0
0	12765	1218.625111404416	1
0	12766	1218.625111404416	2
0	12770	1220	1
0	12800	1222.5	0
0	12806	1223.261278850305	1
0	12807	1223.261278850305	2
0	12830	1225	1
0	12860	1227.005445416782	2
0	12861	1227.005445416782	3
0	12865	1227.5	2
0	12885	1230	1
0	12910	1232.5	0
0	12916	1233.383988855333	1
0	12917	1233.383988855333	2
0	12935	1235	1
0	12962	1236.402347537778	2
0	12963	1236.402347537778	3
0	12972	1237.5	2
0	12997	1240	1
0	13017	1242.5	0
0	13023	1242.941225401042	1
0	13024	1242.941225401042	2
0	13047	1245	1
0	13075	1247.278681130467	2
0	13076	1247.278681130467	3
0	13077	1247.5	2
0	13112	1250	1
0	13124	1251.132157115393	2
0	13125	1251.132157115393	3
0	13142	1252.5	2
0	13170	1254.954486671159	3
0	13171	1254.954486671159	4
0	13172	1255	3
0	13197	1257.5	2
0	13222	1258.970506788848	3
0	13223	1258.970506788848	4
0	13227	1260	3
0	13257	1262.5	2
0	13274	1263.762610453323	3
0	13275	1263.762610453323	4
0	13287	1265	3
0	13317	1266.746382587143	4
0	13318	1266.746382587143	5
0	13322	1267.5	4
0	13347	1270	3
0	13367	1272.5	2
0	13384	1273.874775885743	3
0	13385	1273.874775885743	4
0	13392	1275	3
0	13422	1277.5	2
0	13439	1278.575995610137	3
0	13440	1278.575995610137	4
0	13457	1280	3
0	13485	1282.351435498623	4
0	13486	1282.351435498623	5
0	13487	1282.5	4
0	13517	1285	3
0	13528	1285.558664248261	4
0	13529	1285.558664248261	5
0	13552	1287.5	4
0	13577	1290	3
0	13583	1290.484300858942	4
0	13584	1290.484300858942	5
0	13607	1292.5	4
0	13632	1295	3
0	13638	1295.076040768603	4
0	13639	1295.076040768603	5
0	13667	1297.5	4
0	13678	1298.263896235035	5
0	13679	1298.263896235035	6
0	13702	1300	5
0	13722	1302.5	4
0	13745	1304.813548391172	5
0	13746	1304.813548391172	6
0	13747	1305	5
0	13782	1307.5	4
0	13794	1308.896912351583	5
0	13795	1308.896912351583	6
0	13807	1310	5
0	13832	1312.5	4
0	13849	1313.80960266542	5
0	13850	1313.80960266542	6
0	13862	1315	5
0	13877	1317.5	4
0	13907	1320	3
0	13913	1320.036784478194	4
0	13914	1320.036784478194	5
0	13937	1322.5	4
0	13962	1325	3
0	13968	1325.159002625761	4
0	13969	1325.159002625761	5
0	13997	1327.5	4
0	14017	1329.000491812059	5
0	14018	1329.000491812059	6
0	14022	1330	5
0	14047	1332.5	4
0	14075	1334.845914616576	5
0	14076	1334.845914616576	6
0	14077	1335	5
0	14102	1337.5	4
0	14124	1338.822884399459	5
0	14125	1338.822884399459	6
0	14132	1340	5
0	14157	1342.5	4
0	14177	1345	3
0	14197	1346.700269419238	4
0	14198	1346.700269419238	5
0	14202	1347.5	4
0	14227	1350	3
0	14255	1352.362175997443	4
0	14256	1352.362175997443	5
0	14257	1352.5	4
0	14282	1355	3
0	14307	1356.943174309016	4
0	14308	1356.943174309016	5
0	14312	1357.5	4
0	14332	1360	3
0	14362	1362.5	2
0	14368	1362.940047995672	3
0	14369	1362.940047995672	4
0	14397	1365	3
0	14417	1367.5	2
0	14423	1367.649772706457	3
0	14424	1367.649772706457	4
0	14442	1370	3
0	14467	1372.5	2
0	14490	1374.814251455569	3
0	14491	1374.814251455569	4
0	14492	1375	3
0	14527	1377.5	2
0	14536	1378.546384424339	3
0	14537	1378.546384424339	4
0	14547	1380	3
0	14572	1382.5	2
0	14597	1385	1
0	14603	1385.051064655487	2
0	14604	1385.051064655487	3
0	14632	1387.5	2
0	14652	1389.332172850218	3
0	14653	1389.332172850218	4
0	14657	1390	3
0	14692	1392.5	2
0	14698	1392.554585218171	3
0	14699	1392.554585218171	4
0	14717	1395	3
0	14747	1397.5	2
0	14753	1398.069149301137	3
0	14754	1398.069149301137	4
0	14772	1400	3
0	14797	1402.5	2
0	14817	1404.126146543363	3
0	14818	1404.126146543363	4
0	14822	1405	3
0	14847	1407.5	2
0	14872	1410	1
0	14878	1410.107003494323	2
0	14879	1410.107003494323	3
0	14902	1412.5	2
0	14922	1415	1
0	14939	1416.236760134867	2
0	14940	1416.236760134867	3
0	14957	1417.5	2
0	14985	1419.700353595314	3
0	14986	1419.700353595314	4
0	14987	1420	3
0	15012	1422.5	2
0	15040	1424.965296731673	3
0	15041	1424.965296731673	4
0	15042	1425	3
0	15062	1427.5	2
0	15087	1430	1
0	15098	1430.70895135835	2
0	15099	1430.70895135835	3
0	15117	1432.5	2
0	15137	1435	1
0	15162	1437.5	0
0	15171	1438.556685066693	1
0	15172	1438.556685066693	2
0	15187	1440	1
0	15212	1442.5	0
0	15218	1442.502903398613	1
0	15219	1442.502903398613	2
0	15239	1445	1
0	15256	1447.5	0
0	15262	1447.583347453097	1
0	15263	1447.583347453097	2
0	15278	1450	1
0	15308	1452.485929098374	2
0	15309	1452.485929098374	3
0	15310	1452.5	2
0	15330	1455	1
0	15355	1457.5	0
0	15361	1457.854233807629	1
0	15362	1457.854233807629	2
0	15377	1460	1
0	15407	1462.167792292891	2
0	15408	1462.167792292891	3
0	15409	1462.5	2
0	15429	1465	1
0	15454	1467.5	0
0	15466	1469.608421522168	1
0	15467	1469.608421522168	2
0	15471	1470	1
0	15498	1472.5	0
0	15504	1472.741792444648	1
0	15505	1472.741792444648	2
0	15520	1475	1
0	15542	1477.5	0
0	15548	1477.845790520112	1
0	15549	1477.845790520112	2
0	15574	1480	1
0	15599	1482.5	0
0	15611	1483.658644257552	1
0	15612	1483.658644257552	2
0	15624	1485	1
0	15649	1487.5	0
0	15655	1487.572308769679	1
0	15656	1487.572308769679	2
0	15679	1490	1
0	15701	1492.5	0
0	15713	1494.353163872328	1
0	15714	1494.353163872328	2
0	15726	1495	1
0	15746	1497.5	0
0	15752	1497.527595027086	1
0	15753	1497.527595027086	2
0	15770	1500	1
0	15789	1502.5	0
0	15798	1503.419870793838	1
0	15799	1503.419870793838	2
0	15814	1505	1
0	15847	1507.276739786496	2
0	15848	1507.276739786496	3
0	15849	1507.5	2
0	15879	1510	1
0	15893	1511.191995289173	2
0	15894	1511.191995289173	3
0	15909	1512.5	2
0	15939	1515	1
0	15945	1515.237801364892	2
0	15946	1515.237801364892	3
0	15969	1517.5	2
0	15994	1520	1
0	16000	1520.250917338087	2
0	16001	1520.250917338087	3
0	16019	1522.5	2
0	16049	1525	1
0	16061	1526.42842272605	2
0	16062	1526.42842272605	3
0	16069	1527.5	2
0	16099	1530	1
0	16110	1530.822026532157	2
0	16111	1530.822026532157	3
0	16129	1532.5	2
0	16159	1535	1
0	16165	1535.973402846106	2
0	16166	1535.973402846106	3
0	16179	1537.5	2
0	16204	1540	1
0	16229	1542.5	0
0	16235	1543.41034156445	1
0	16236	1543.41034156445	2
0	16259	1545	1
0	16284	1547.5	0
0	16290	1547.977569429454	1
0	16291	1547.977569429454	2
0	16304	1550	1
0	16329	1552.5	0
0	16335	1553.052534062287	1
0	16336	1553.052534062287	2
0	16353	1555	1
0	16383	1557.357352713793	2
0	16384	1557.357352713793	3
0	16385	1557.5	2
0	16420	1560	1
0	16426	1560.328395373207	2
0	16427	1560.328395373207	3
0	16445	1562.5	2
0	16475	1565	1
0	16490	1566.193687198811	2
0	16491	1566.193687198811	3
0	16500	1567.5	2
0	16520	1570	1
0	16540	1572.5	0
0	16549	1573.271122451807	1
0	16550	1573.271122451807	2
0	16565	1575	1
0	16587	1577.5	0
0	16596	1578.816630952752	1
0	16597	1578.816630952752	2
0	16609	1580	1
0	16631	1582.5	0
0	16637	1582.981009636768	1
0	16638	1582.981009636768	2
0	16658	1585	1
0	16683	1587.5	0
0	16692	1588.319925814948	1
0	16693	1588.319925814948	2
0	16713	1590	1
0	16732	1591.212491895109	2
0	16733	1591.212491895109	3
0	16745	1592.5	2
0	16770	1595	1
0	16793	1597.186911784644	2
0	16794	1597.186911784644	3
0	16795	1597.5	2
0	16815	1600	1
0	16845	1601.779012317827	2
0	16846	1601.779012317827	3
0	16850	1602.5	2
0	16880	1605	1
0	16900	1607.5	0
0	16906	1608.085687704685	1
0	16907	1608.085687704685	2
0	16920	1610	1
0	16950	1612.5	0
0	16956	1613.310722202563	1
0	16957	1613.310722202563	2
0	16967	1615	1
0	16994	1617.5	0
0	17000	1618.055058366656	1
0	17001	1618.055058366656	2
0	17021	1620	1
0	17051	1622.5	0
0	17057	1622.803638320684	1
0	17058	1622.803638320684	2
0	17081	1625	1
0	17109	1627.281008305534	2
0	17110	1627.281008305534	3
0	17116	1627.5	2
0	17146	1630	1
0	17152	1630.237978191758	2
0	17153	1630.237978191758	3
0	17176	1632.5	2
0	17201	1635	1
0	17207	1635.109921261231	2
0	17208	1635.109921261231	3
0	17236	1637.5	2
0	17242	1638.222765015315	3
0	17243	1638.222765015315	4
0	17256	1640	3
0	17286	1642.5	2
0	17311	1645	1
0	17317	1645.153727753339	2
0	17318	1645.153727753339	3
0	17336	1647.5	2
0	17361	1650	1
0	17367	1650.661602160946	2
0	17368	1650.661602160946	3
0	17386	1652.5	2
0	17416	1655	1
0	17422	1655.300944625454	2
0	17423	1655.300944625454	3
0	17441	1657.5	2
0	17471	1660	1
0	17477	1660.506228297443	2
0	17478	1660.506228297443	3
0	17511	1662.5	2
0	17531	1665	1
0	17543	1666.069330357179	2
0	17544	1666.069330357179	3
0	17556	1667.5	2
0	17586	1670	1
0	17595	1670.958730472333	2
0	17596	1670.958730472333	3
0	17606	1672.5	2
0	17631	1675	1
0	17656	1676.988457201568	2
0	17657	1676.988457201568	3
0	17661	1677.5	2
0	17691	1680	1
0	17697	1680.697853105205	2