version 3
run k_MM1_lbqf-30-20221127-16:03:36-25264
attr configname k_MM1_lbqf
attr datetime 20221127-16:03:36
attr datetimef 20221127-160336
attr experiment k_MM1_lbqf
attr inifile omnetpp.ini
attr iterationvars "$time=2.5, $num=5, $0=47853, $1=24674, $2=96433"
attr iterationvarsd time=2.5/num=5/47853/24674/96433
attr iterationvarsf time=2.5,num=5,47853,24674,96433-
attr measurement "$time=2.5, $num=5, $0=47853, $1=24674, $2=96433"
attr network lbqfkMM1
attr processid 25264
attr repetition 2
attr replication #2
attr resultdir results
attr runnumber 30
attr seedset 30
itervar num 5
itervar time 2.5
config description "MM1 module k-times lbqf"
config network lbqfkMM1
config **.interArrivalTime "truncnormal(uniform(0.5s, 1.5s), uniform(0.25s, 0.75s))"
config **.serviceTime 2.5s
config **.c 5
config **.capacity 10000
config record-eventlog false
config **.scalar-recording true
config **.vector-recording true
config repeat 4
config seed-1-mt 47853
config seed-2-mt 24674
config seed-3-mt 96433
config output-vector-file k_MM1_lbqf-5-2.5-results/2.vec
config output-scalar-file k_MM1_lbqf-5-2.5-results/2.sca

vector 0 lbqfkMM1.mm1[0] queueLength:vector ETV
attr interpolationmode none
attr recordingmode vector
attr title "queue length"
vector 1 lbqfkMM1.mm1[1] queueLength:vector ETV
attr interpolationmode none
attr recordingmode vector
attr title "queue length"
vector 2 lbqfkMM1.mm1[2] queueLength:vector ETV
attr interpolationmode none
attr recordingmode vector
attr title "queue length"
vector 3 lbqfkMM1.mm1[0] util:vector ETV
attr interpolationmode none
attr recordingmode vector
attr title resources
vector 4 lbqfkMM1.mm1[1] util:vector ETV
attr interpolationmode none
attr recordingmode vector
attr title resources
vector 5 lbqfkMM1.mm1[2] util:vector ETV
attr interpolationmode none
attr recordingmode vector
attr title resources
vector 6 lbqfkMM1.mm1[3] queueLength:vector ETV
attr interpolationmode none
attr recordingmode vector
attr title "queue length"
vector 7 lbqfkMM1.mm1[3] util:vector ETV
attr interpolationmode none
attr recordingmode vector
attr title resources
vector 8 lbqfkMM1.mm1[4] queueLength:vector ETV
attr interpolationmode none
attr recordingmode vector
attr title "queue length"
vector 9 lbqfkMM1.mm1[4] util:vector ETV
attr interpolationmode none
attr recordingmode vector
attr title resources
0	5	10	1
0	16	12.5	0
0	22	13.287904651036	1
0	23	13.287904651036	2
0	35	15	1
0	54	17.5	0
0	60	18.230685210599	1
0	61	18.230685210599	2
0	76	20	1
0	98	22.5	0
0	104	23.760127467868	1
0	105	23.760127467868	2
0	120	25	1
0	142	27.5	0
0	148	27.886366125363	1
0	149	27.886366125363	2
0	164	30	1
0	191	32.5	0
0	197	32.895275451264	1
0	198	32.895275451264	2
0	226	35	1
0	237	36.183540251498	2
0	238	36.183540251498	3
0	256	37.5	2
0	281	40	1
0	295	41.69350849231	2
0	296	41.69350849231	3
0	306	42.5	2
0	331	45	1
0	356	47.5	0
0	362	47.796212975808	1
0	363	47.796212975808	2
0	386	50	1
0	405	51.939397667494	2
0	406	51.939397667494	3
0	416	52.5	2
0	441	55	1
0	460	56.907465385055	2
0	461	56.907465385055	3
0	471	57.5	2
0	506	60	1
0	512	61.234305417269	2
0	513	61.234305417269	3
0	531	62.5	2
0	556	65	1
0	570	66.354906235249	2
0	571	66.354906235249	3
0	581	67.5	2
0	601	70	1
0	626	72.5	0
0	632	72.851602512781	1
0	633	72.851602512781	2
0	653	75	1
0	678	77.5	0
0	684	77.569526880214	1
0	685	77.569526880214	2
0	703	80	1
0	725	82.5	0
0	731	83.066144759327	1
0	732	83.066144759327	2
0	747	85	1
0	774	87.5	0
0	780	87.924876395056	1
0	781	87.924876395056	2
0	809	90	1
0	820	91.245096682759	2
0	821	91.245096682759	3
0	834	92.5	2
0	859	95	1
0	884	97.326930979662	2
0	885	97.326930979662	3
0	889	97.5	2
0	909	100	1
0	939	102.5	0
0	945	103.033265170385	1
0	946	103.033265170385	2
0	964	105	1
0	989	107.5	0
0	995	107.94785377886	1
0	996	107.94785377886	2
0	1011	110	1
0	1035	112.098532950508	2
0	1036	112.098532950508	3
0	1043	112.5	2
0	1068	115	1
0	1090	117.13374951285	2
0	1091	117.13374951285	3
0	1098	117.5	2
0	1128	120	1
0	1142	121.462239569753	2
0	1143	121.462239569753	3
0	1153	122.5	2
0	1178	125	1
0	1198	127.5	0
0	1204	128.09562980122	1
0	1205	128.09562980122	2
0	1230	130	1
0	1255	132.5	0
0	1261	133.500814756591	1
0	1262	133.500814756591	2
0	1285	135	1
0	1299	136.571421234137	2
0	1300	136.571421234137	3
0	1310	137.5	2
0	1340	140	1
0	1351	141.199824398897	2
0	1352	141.199824398897	3
0	1370	142.5	2
0	1395	145	1
0	1406	146.140335060484	2
0	1407	146.140335060484	3
0	1430	147.5	2
0	1449	149.429342877914	3
0	1450	149.429342877914	4
0	1460	150	3
0	1480	152.5	2
0	1504	154.188562413195	3
0	1505	154.188562413195	4
0	1515	155	3
0	1545	157.5	2
0	1556	157.845812288258	3
0	1557	157.845812288258	4
0	1585	160	3
0	1596	161.234097187567	4
0	1597	161.234097187567	5
0	1615	162.5	4
0	1635	165	3
0	1655	167.5	2
0	1669	169.096864099355	3
0	1670	169.096864099355	4
0	1680	170	3
0	1710	172.5	2
0	1721	173.406299223067	3
0	1722	173.406299223067	4
0	1735	175	3
0	1760	177.5	2
0	1785	180	1
0	1791	180.047591232497	2
0	1792	180.047591232497	3
0	1815	182.5	2
0	1840	185	1
0	1846	185.80311028576	2
0	1847	185.80311028576	3
0	1870	187.5	2
0	1886	188.572203894087	3
0	1887	188.572203894087	4
0	1905	190	3
0	1930	192.5	2
0	1944	193.923634873688	3
0	1945	193.923634873688	4
0	1955	195	3
0	1980	197.5	2
0	1999	199.349846663571	3
0	2000	199.349846663571	4
0	2010	200	3
0	2035	202.5	2
0	2060	205	1
0	2069	206.747668663287	2
0	2070	206.747668663287	3
0	2080	207.5	2
0	2105	210	1
0	2130	212.5	0
0	2136	212.955436589802	1
0	2137	212.955436589802	2
0	2160	215	1
0	2185	217.5	0
0	2191	217.954784642452	1
0	2192	217.954784642452	2
0	2210	220	1
0	2232	222.5	0
0	2238	222.701622313541	1
0	2239	222.701622313541	2
0	2254	225	1
0	2279	227.5	0
0	2285	227.773359655788	1
0	2286	227.773359655788	2
0	2301	230	1
0	2325	232.103683841548	2
0	2326	232.103683841548	3
0	2330	232.5	2
0	2350	235	1
0	2375	237.5	0
0	2384	239.411839391725	1
0	2385	239.411839391725	2
0	2392	240	1
0	2424	242.5	0
0	2433	244.406885058649	1
0	2434	244.406885058649	2
0	2449	245	1
0	2474	247.5	0
0	2480	248.120165520562	1
0	2481	248.120165520562	2
0	2496	250	1
0	2523	252.330437064938	2
0	2524	252.330437064938	3
0	2528	252.5	2
0	2553	255	1
0	2578	257.5	0
0	2584	257.603521004276	1
0	2585	257.603521004276	2
0	2608	260	1
0	2633	262.5	0
0	2639	263.526108346119	1
0	2640	263.526108346119	2
0	2658	265	1
0	2688	267.5	0
0	2694	268.158097752442	1
0	2695	268.158097752442	2
0	2723	270	1
0	2734	270.710060601063	2
0	2735	270.710060601063	3
0	2758	272.5	2
0	2778	275	1
0	2792	276.438505185086	2
0	2793	276.438505185086	3
0	2808	277.5	2
0	2833	280	1
0	2847	281.698674225196	2
0	2848	281.698674225196	3
0	2863	282.5	2
0	2883	285	1
0	2902	286.801402053867	2
0	2903	286.801402053867	3
0	2918	287.5	2
0	2943	290	1
0	2957	291.320816655101	2
0	2958	291.320816655101	3
0	2968	292.5	2
0	2998	295	1
0	3012	296.732688818103	2
0	3013	296.732688818103	3
0	3028	297.5	2
0	3058	300	1
0	3064	300.399245592113	2
0	3065	300.399245592113	3
0	3088	302.5	2
0	3113	305	1
0	3119	305.731608097499	2
0	3120	305.731608097499	3
0	3143	307.5	2
0	3168	310	1
0	3174	310.929174929759	2
0	3175	310.929174929759	3
0	3193	312.5	2
0	3213	315	1
0	3232	316.364599783212	2
0	3233	316.364599783212	3
0	3243	317.5	2
0	3268	320	1
0	3288	322.5	0
0	3294	323.640709522972	1
0	3295	323.640709522972	2
0	3305	325	1
0	3332	327.5	0
0	3341	329.006986762016	1
0	3342	329.006986762016	2
0	3354	330	1
0	3371	332.5	0
0	3377	332.941556115419	1
0	3378	332.941556115419	2
0	3390	335	1
0	3409	337.5	0
0	3415	337.721864415759	1
0	3416	337.721864415759	2
0	3436	340	1
0	3466	342.149802416213	2
0	3467	342.149802416213	3
0	3471	342.5	2
0	3496	345	1
0	3521	347.5	0
0	3530	348.680380715261	1
0	3531	348.680380715261	2
0	3551	350	1
0	3576	352.143411321399	2
0	3577	352.143411321399	3
0	3581	352.5	2
0	3606	355	1
0	3631	357.5	0
0	3643	359.047435782683	1
0	3644	359.047435782683	2
0	3651	360	1
0	3686	362.5	0
0	3692	362.713385081068	1
0	3693	362.713385081068	2
0	3706	365	1
0	3731	367.5	0
0	3740	368.678489551758	1
0	3741	368.678489551758	2
0	3758	370	1
0	3777	372.5	0
0	3786	373.33963343203	1
0	3787	373.33963343203	2
0	3802	375	1
0	3827	377.5	0
0	3833	378.696775992864	1
0	3834	378.696775992864	2
0	3849	380	1
0	3876	382.5	0
0	3882	383.624611809402	1
0	3883	383.624611809402	2
0	3901	385	1
0	3931	387.5	0
0	3937	387.975679230337	1
0	3938	387.975679230337	2
0	3956	390	1
0	3981	392.5	0
0	3987	392.915342316898	1
0	3988	392.915342316898	2
0	4013	395	1
0	4033	397.5	0
0	4039	398.139575800833	1
0	4040	398.139575800833	2
0	4063	400	1
0	4088	402.5	0
0	4097	404.020609761403	1
0	4098	404.020609761403	2
0	4108	405	1
0	4130	407.5	0
0	4136	407.700568772629	1
0	4137	407.700568772629	2
0	4154	410	1
0	4176	412.5	0
0	4182	413.125156290528	1
0	4183	413.125156290528	2
0	4193	415	1
0	4215	417.5	0
0	4221	417.636073833744	1
0	4222	417.636073833744	2
0	4242	420	1
0	4269	422.047173598978	2
0	4270	422.047173598978	3
0	4274	422.5	2
0	4299	425	1
0	4319	427.5	0
0	4325	428.195939456518	1
0	4326	428.195939456518	2
0	4349	430	1
0	4374	432.5	0
0	4380	432.62883925553	1
0	4381	432.62883925553	2
0	4396	435	1
0	4423	437.5	0
0	4438	439.379220619709	1
0	4439	439.379220619709	2
0	4443	440	1
0	4468	442.5	0
0	4474	442.945545909667	1
0	4475	442.945545909667	2
0	4500	445	1
0	4511	445.887749295185	2
0	4512	445.887749295185	3
0	4542	447.5	2
0	4551	448.773812134316	3
0	4552	448.773812134316	4
0	4567	450	3
0	4597	452.5	2
0	4606	453.163762022857	3
0	4607	453.163762022857	4
0	4617	455	3
0	4652	457.5	2
0	4664	458.886022789508	3
0	4665	458.886022789508	4
0	4672	460	3
0	4697	462.5	2
0	4722	465	1
0	4731	466.080464926713	2
0	4732	466.080464926713	3
0	4747	467.5	2
0	4777	470	1
0	4783	470.278235561123	2
0	4784	470.278235561123	3
0	4807	472.5	2
0	4837	475	1
0	4846	475.958294103157	2
0	4847	475.958294103157	3
0	4857	477.5	2
0	4892	480	1
0	4898	480.571323583885	2
0	4899	480.571323583885	3
0	4912	482.5	2
0	4947	485	1
0	4953	485.348018710011	2
0	4954	485.348018710011	3
0	4977	487.5	2
0	5002	490	1
0	5017	491.64649847685	2
0	5018	491.64649847685	3
0	5022	492.5	2
0	5060	494.900821092379	3
0	5061	494.900821092379	4
0	5062	495	3
0	5082	497.5	2
0	5107	500	1
0	5116	500.738329058192	2
0	5117	500.738329058192	3
0	5132	502.5	2
0	5157	505	1
0	5177	507.5	0
0	5183	507.996573651172	1
0	5184	507.996573651172	2
0	5212	510	1
0	5237	512.5	0
0	5246	513.307639434654	1
0	5247	513.307639434654	2
0	5262	515	1
0	5292	517.5	0
0	5298	518.569631659931	1
0	5299	518.569631659931	2
0	5322	520	1
0	5342	522.5	0
0	5348	522.918617197202	1
0	5349	522.918617197202	2
0	5372	525	1
0	5397	527.5	0
0	5403	528.426245212022	1
0	5404	528.426245212022	2
0	5419	530	1
0	5441	532.5	0
0	5447	533.492225828869	1
0	5448	533.492225828869	2
0	5463	535	1
0	5485	537.5	0
0	5491	538.102556685684	1
0	5492	538.102556685684	2
0	5507	540	1
0	5524	542.5	0
0	5530	543.197856254371	1
0	5531	543.197856254371	2
0	5546	545	1
0	5573	547.5	0
0	5579	547.690381035185	1
0	5580	547.690381035185	2
0	5595	550	1
0	5617	552.5	0
0	5623	552.519501263893	1
0	5624	552.519501263893	2
0	5644	555	1
0	5669	557.5	0
0	5675	558.451145639346	1
0	5676	558.451145639346	2
0	5699	560	1
0	5721	562.5	0
0	5730	563.801377408684	1
0	5731	563.801377408684	2
0	5746	565	1
0	5768	566.647267739957	2
0	5769	566.647267739957	3
0	5781	567.5	2
0	5811	570	1
0	5817	571.165181387749	2
0	5818	571.165181387749	3
0	5836	572.5	2
0	5871	575	1
0	5877	575.345289846057	2
0	5878	575.345289846057	3
0	5901	577.5	2
0	5921	580	1
0	5927	580.293915274726	2
0	5928	580.293915274726	3
0	5946	582.5	2
0	5971	585	1
0	5996	587.5	0
0	6002	588.17614575197	1
0	6003	588.17614575197	2
0	6021	590	1
0	6043	591.451828176517	2
0	6044	591.451828176517	3
0	6056	592.5	2
0	6091	595	1
0	6097	595.769796925053	2
0	6098	595.769796925053	3
0	6111	597.5	2
0	6136	600	1
0	6161	602.5	0
0	6167	602.800001718689	1
0	6168	602.800001718689	2
0	6191	605	1
0	6208	606.40718498038	2
0	6209	606.40718498038	3
0	6216	607.5	2
0	6241	610	1
0	6271	612.5	0
0	6277	613.151580614795	1
0	6278	613.151580614795	2
0	6296	615	1
0	6316	617.5	0
0	6322	618.300983725443	1
0	6323	618.300983725443	2
0	6343	620	1
0	6368	622.5	0
0	6374	623.252976722943	1
0	6375	623.252976722943	2
0	6393	625	1
0	6412	627.5	0
0	6418	627.931757703348	1
0	6419	627.931757703348	2
0	6439	630	1
0	6459	632.5	0
0	6465	632.728405361419	1
0	6466	632.728405361419	2
0	6481	635	1
0	6500	637.5	0
0	6506	638.715195104089	1
0	6507	638.715195104089	2
0	6522	640	1
0	6544	642.5	0
0	6550	642.871808273445	1
0	6551	642.871808273445	2
0	6571	645	1
0	6601	647.5	0
0	6613	649.301943018257	1
0	6614	649.301943018257	2
0	6621	650	1
0	6646	652.5	0
0	6652	652.557797770003	1
0	6653	652.557797770003	2
0	6668	655	1
0	6690	657.5	0
0	6696	657.761814810443	1
0	6697	657.761814810443	2
0	6717	660	1
0	6731	662.5	0
0	6737	662.743696680053	1
0	6738	662.743696680053	2
0	6753	665	1
0	6775	667.5	0
0	6781	667.781317537026	1
0	6782	667.781317537026	2
0	6797	670	1
0	6819	672.5	0
0	6825	672.90668263921	1
0	6826	672.90668263921	2
0	6841	675	1
0	6863	677.5	0
0	6869	678.450596372339	1
0	6870	678.450596372339	2
0	6885	680	1
0	6902	682.5	0
0	6908	682.768812618113	1
0	6909	682.768812618113	2
0	6921	685	1
0	6940	687.5	0
0	6946	687.521698259622	1
0	6947	687.521698259622	2
0	6972	690	1
0	6983	690.877633836252	2
0	6984	690.877633836252	3
0	7002	692.5	2
0	7027	695	1
0	7052	696.972911285021	2
0	7053	696.972911285021	3
0	7057	697.5	2
0	7082	700	1
0	7093	700.833735823433	2
0	7094	700.833735823433	3
0	7112	702.5	2
0	7142	705	1
0	7162	707.029666697855	2
0	7163	707.029666697855	3
0	7172	707.5	2
0	7188	708.253041187877	3
0	7189	708.253041187877	4
0	7207	710	3
0	7232	712.5	2
0	7243	713.005521060035	3
0	7244	713.005521060035	4
0	7267	715	3
0	7292	717.5	2
0	7298	717.619180155815	3
0	7299	717.619180155815	4
0	7327	720	3
0	7355	722.356075562002	4
0	7356	722.356075562002	5
0	7357	722.5	4
0	7392	725	3
0	7398	725.402601686492	4
0	7399	725.402601686492	5
0	7422	727.5	4
0	7442	730	3
0	7448	730.063545923416	4
0	7449	730.063545923416	5
0	7467	732.5	4
0	7502	735	3
0	7508	735.880472772381	4
0	7509	735.880472772381	5
0	7527	737.5	4
0	7557	740	3
0	7563	740.402900497712	4
0	7564	740.402900497712	5
0	7582	742.5	4
0	7607	745	3
0	7613	745.241837687993	4
0	7614	745.241837687993	5
0	7632	747.5	4
0	7662	750	3
0	7668	750.146661502032	4
0	7669	750.146661502032	5
0	7697	752.5	4
0	7722	755	3
0	7728	755.725141697823	4
0	7729	755.725141697823	5
0	7747	757.5	4
0	7780	759.77790418808	5
0	7781	759.77790418808	6
0	7782	760	5
0	7802	762.5	4
0	7827	765	3
0	7833	765.69043641012	4
0	7834	765.69043641012	5
0	7847	767.5	4
0	7872	770	3
0	7892	772.5	2
0	7917	775	1
0	7923	775.535326672514	2
0	7924	775.535326672514	3
0	7947	777.5	2
0	7967	780	1
0	7973	780.217093506493	2
0	7974	780.217093506493	3
0	7997	782.5	2
0	8022	785	1
0	8028	785.224191728323	2
0	8029	785.224191728323	3
0	8047	787.5	2
0	8072	790	1
0	8097	792.5	0
0	8106	793.64418798687	1
0	8107	793.64418798687	2
0	8127	795	1
0	8152	797.5	0
0	8158	798.163984606227	1
0	8159	798.163984606227	2
0	8177	800	1
0	8197	802.5	0
0	8203	802.610883639994	1
0	8204	802.610883639994	2
0	8224	805	1
0	8246	807.5	0
0	8255	808.208033667158	1
0	8256	808.208033667158	2
0	8268	810	1
0	8295	812.5	0
0	8307	814.152547950344	1
0	8308	814.152547950344	2
0	8315	815	1
0	8340	817.5	0
0	8346	817.698481203524	1
0	8347	817.698481203524	2
0	8367	820	1
0	8394	822.5	0
0	8400	822.586805205782	1
0	8401	822.586805205782	2
0	8424	825	1
0	8444	827.5	0
0	8450	827.57165463672	1
0	8451	827.57165463672	2
0	8471	830	1
0	8491	832.5	0
0	8497	832.952759168681	1
0	8498	832.952759168681	2
0	8526	835	1
0	8556	837.5	0
0	8562	837.945223031123	1
0	8563	837.945223031123	2
0	8586	840	1
0	8592	840.772690978854	2
0	8593	840.772690978854	3
0	8611	842.5	2
0	8636	845	1
0	8650	846.461563299089	2
0	8651	846.461563299089	3
0	8661	847.5	2
0	8686	850	1
0	8703	852.5	0
0	8709	853.043503697043	1
0	8710	853.043503697043	2
0	8730	855	1
0	8747	857.5	0
0	8753	857.817320014886	1
0	8754	857.817320014886	2
0	8774	860	1
0	8796	862.5	0
0	8802	863.360953701157	1
0	8803	863.360953701157	2
0	8818	865	1
0	8840	867.5	0
0	8849	868.782259279579	1
0	8850	868.782259279579	2
0	8865	870	1
0	8882	872.5	0
0	8888	873.054888527826	1
0	8889	873.054888527826	2
0	8901	875	1
0	8920	877.5	0
0	8926	877.533601084804	1
0	8927	877.533601084804	2
0	8942	880	1
0	8969	882.5	0
0	8975	883.083185618811	1
0	8976	883.083185618811	2
0	8999	885	1
0	9024	887.5	0
0	9030	888.063182723079	1
0	9031	888.063182723079	2
0	9049	890	1
0	9079	892.5	0
0	9085	893.203856901111	1
0	9086	893.203856901111	2
0	9109	895	1
0	9134	897.5	0
0	9143	899.176346448316	1
0	9144	899.176346448316	2
0	9154	900	1
0	9184	902.5	0
0	9193	904.097768749186	1
0	9194	904.097768749186	2
0	9201	905	1
0	9228	907.5	0
0	9234	907.52419662408	1
0	9235	907.52419662408	2
0	9250	910	1
0	9272	912.5	0
0	9278	912.71596597671	1
0	9279	912.71596597671	2
0	9294	915	1
0	9316	917.5	0
0	9322	917.729072083481	1
0	9323	917.729072083481	2
0	9348	920	1
0	9373	922.5	0
0	9379	923.160761274083	1
0	9380	923.160761274083	2
0	9398	925	1
0	9428	927.425734359434	2
0	9429	927.425734359434	3
0	9433	927.5	2
0	9468	930	1
0	9480	931.29514421614	2
0	9481	931.29514421614	3
0	9493	932.5	2
0	9518	935	1
0	9524	935.076384211002	2
0	9525	935.076384211002	3
0	9538	937.5	2
0	9568	940	1
0	9593	942.5	0
0	9599	943.290141461327	1
0	9600	943.290141461327	2
0	9618	945	1
0	9643	947.5	0
0	9652	948.598583475274	1
0	9653	948.598583475274	2
0	9663	950	1
0	9690	952.5	0
0	9696	952.596679735972	1
0	9697	952.596679735972	2
0	9717	955	1
0	9747	957.5	0
0	9753	958.326530477177	1
0	9754	958.326530477177	2
0	9767	960	1
0	9792	962.5	0
0	9798	962.907224439477	1
0	9799	962.907224439477	2
0	9814	965	1
0	9838	967.5	0
0	9844	968.197322922025	1
0	9845	968.197322922025	2
0	9863	970	1
0	9883	972.5	0
0	9889	972.899773834658	1
0	9890	972.899773834658	2
0	9902	975	1
0	9926	977.5	0
0	9932	977.975680690433	1
0	9933	977.975680690433	2
0	9951	980	1
0	9984	982.463910162491	2
0	9985	982.463910162491	3
0	9986	982.5	2
0	10011	985	1
0	10030	986.288245323202	2
0	10031	986.288245323202	3
0	10041	987.5	2
0	10071	990	1
0	10085	991.501717712845	2
0	10086	991.501717712845	3
0	10101	992.5	2
0	10131	995	1
0	10140	996.474503825968	2
0	10141	996.474503825968	3
0	10151	997.5	2
0	10171	1000	1
0	10201	1002.5	0
0	10207	1003.200110318497	1
0	10208	1003.200110318497	2
0	10226	1005	1
0	10251	1007.5	0
0	10257	1007.702360282475	1
0	10258	1007.702360282475	2
0	10278	1010	1
0	10308	1012.5	0
0	10314	1013.118389289829	1
0	10315	1013.118389289829	2
0	10333	1015	1
0	10358	1017.5	0
0	10364	1017.637676733097	1
0	10365	1017.637676733097	2
0	10388	1020	1
0	10413	1022.5	0
0	10422	1024.403561068873	1
0	10423	1024.403561068873	2
0	10438	1025	1
0	10455	1027.5	0
0	10461	1027.569442127561	1
0	10462	1027.569442127561	2
0	10479	1030	1
0	10506	1032.5	0
0	10512	1032.584347162948	1
0	10513	1032.584347162948	2
0	10536	1035	1
0	10547	1035.937492957269	2
0	10548	1035.937492957269	3
0	10566	1037.5	2
0	10586	1040	1
0	10616	1042.5	0
0	10628	1043.802326946456	1
0	10629	1043.802326946456	2
0	10641	1045	1
0	10661	1047.5	0
0	10667	1047.520175713198	1
0	10668	1047.520175713198	2
0	10683	1050	1
0	10705	1052.5	0
0	10711	1053.262400202167	1
0	10712	1053.262400202167	2
0	10727	1055	1
0	10751	1057.5	0
0	10757	1057.918252664162	1
0	10758	1057.918252664162	2
0	10781	1060	1
0	10803	1062.115814951521	2
0	10804	1062.115814951521	3
0	10811	1062.5	2
0	10831	1065	1
0	10856	1067.5	0
0	10862	1068.048848811206	1
0	10863	1068.048848811206	2
0	10878	1070	1
0	10905	1072.5	0
0	10920	1074.627681456226	1
0	10921	1074.627681456226	2
0	10930	1075	1
0	10955	1077.5	0
0	10961	1077.980747748997	1
0	10962	1077.980747748997	2
0	10977	1080	1
0	10999	1082.5	0
0	11005	1082.777854871661	1
0	11006	1082.777854871661	2
0	11026	1085	1
0	11056	1087.5	0
0	11062	1088.125645336751	1
0	11063	1088.125645336751	2
0	11081	1090	1
0	11101	1092.5	0
0	11107	1093.072819989713	1
0	11108	1093.072819989713	2
0	11123	1095	1
0	11147	1097.5	0
0	11153	1098.385062090784	1
0	11154	1098.385062090784	2
0	11172	1100	1
0	11202	1102.5	0
0	11208	1103.69333777187	1
0	11209	1103.69333777187	2
0	11237	1105	1
0	11257	1107.5	0
0	11269	1108.929329925904	1
0	11270	1108.929329925904	2
0	11277	1110	1
0	11302	1112.5	0
0	11308	1113.027164526731	1
0	11309	1113.027164526731	2
0	11321	1115	1
0	11345	1117.5	0
0	11351	1118.288657628821	1
0	11352	1118.288657628821	2
0	11370	1120	1
0	11400	1122.5	0
0	11412	1123.861212415289	1
0	11413	1123.861212415289	2
0	11425	1125	1
0	11455	1127.5	0
0	11461	1127.602722242785	1
0	11462	1127.602722242785	2
0	11480	1130	1
0	11510	1132.5	0
0	11516	1133.104180893264	1
0	11517	1133.104180893264	2
0	11540	1135	1
0	11562	1137.2544292967	2
0	11563	1137.2544292967	3
0	11570	1137.5	2
0	11600	1140	1
0	11611	1141.171331305955	2
0	11612	1141.171331305955	3
0	11625	1142.5	2
0	11650	1145	1
0	11672	1147.059300922566	2
0	11673	1147.059300922566	3
0	11680	1147.5	2
0	11705	1150	1
0	11730	1152.5	0
0	11736	1153.253785115654	1
0	11737	1153.253785115654	2
0	11755	1155	1
0	11785	1157.5	0
0	11791	1158.676302595934	1
0	11792	1158.676302595934	2
0	11805	1160	1
0	11830	1162.5	0
0	11836	1162.546518004299	1
0	11837	1162.546518004299	2
0	11854	1165	1
0	11868	1167.5	0
0	11874	1167.854716336114	1
0	11875	1167.854716336114	2
0	11890	1170	1
0	11912	1172.5	0
0	11918	1172.782078997462	1
0	11919	1172.782078997462	2
0	11939	1175	1
0	11964	1177.5	0
0	11970	1177.622402498	1
0	11971	1177.622402498	2
0	11989	1180	1
0	12016	1182.5	0
0	12022	1183.547398083294	1
0	12023	1183.547398083294	2
0	12046	1185	1
0	12071	1187.5	0
0	12077	1187.781720007242	1
0	12078	1187.781720007242	2
0	12096	1190	1
0	12121	1192.5	0
0	12130	1194.108992235726	1
0	12131	1194.108992235726	2
0	12138	1195	1
0	12160	1197.5	0
0	12169	1199.279062048585	1
0	12170	1199.279062048585	2
0	12174	1200	1
0	12198	1202.5	0
0	12204	1203.586076165142	1
0	12205	1203.586076165142	2
0	12220	1205	1
0	12247	1207.5	0
0	12253	1207.919355650945	1
0	12254	1207.919355650945	2
0	12277	1210	1
0	12302	1212.5	0
0	12308	1213.434358250635	1
0	12309	1213.434358250635	2
0	12327	1215	1
0	12357	1217.5	0
0	12363	1218.046533746006	1
0	12364	1218.046533746006	2
0	12392	1220	1
0	12406	1221.532164398982	2
0	12407	1221.532164398982	3
0	12422	1222.5	2
0	12442	1225	1
0	12467	1227.318419890197	2
0	12468	1227.318419890197	3
0	12472	1227.5	2
0	12497	1230	1
0	12516	1231.324088231408	2
0	12517	1231.324088231408	3
0	12532	1232.5	2
0	12562	1235	1
0	12568	1236.17000086851	2
0	12569	1236.17000086851	3
0	12582	1237.5	2
0	12617	1240	1
0	12626	1241.922650581685	2
0	12627	1241.922650581685	3
0	12642	1242.5	2
0	12662	1245	1
0	12687	1247.5	0
0	12693	1248.178133228433	1
0	12694	1248.178133228433	2
0	12712	1250	1
0	12737	1252.5	0
0	12743	1253.678830707484	1
0	12744	1253.678830707484	2
0	12759	1255	1
0	12776	1257.5	0
0	12782	1258.417098316262	1
0	12783	1258.417098316262	2
0	12800	1260	1
0	12827	1262.5	0
0	12833	1262.610702026113	1
0	12834	1262.610702026113	2
0	12852	1265	1
0	12877	1267.5	0
0	12883	1267.603646706204	1
0	12884	1267.603646706204	2
0	12899	1270	1
0	12924	1272.5	0
0	12930	1273.219878586593	1
0	12931	1273.219878586593	2
0	12944	1275	1
0	12968	1277.5	0
0	12974	1278.173840953716	1
0	12975	1278.173840953716	2
0	12990	1280	1
0	13007	1282.5	0
0	13013	1282.623700818676	1
0	13014	1282.623700818676	2
0	13026	1285	1
0	13045	1287.5	0
0	13051	1287.833791671167	1
0	13052	1287.833791671167	2
0	13067	1290	1
0	13102	1292.5	0
0	13108	1292.978271525801	1
0	13109	1292.978271525801	2
0	13127	1295	1
0	13152	1297.5	0
0	13164	1299.143673990623	1
0	13165	1299.143673990623	2
0	13172	1300	1
0	13194	1302.5	0
0	13200	1303.40395079358	1
0	13201	1303.40395079358	2
0	13208	1305	1
0	13227	1307.5	0
0	13236	1308.816219406573	1
0	13237	1308.816219406573	2
0	13246	1310	1
0	13260	1312.5	0
0	13266	1312.537467634935	1
0	13267	1312.537467634935	2
0	13279	1315	1
0	13303	1317.5	0
0	13309	1317.774754496826	1
0	13310	1317.774754496826	2
0	13338	1320	1
0	13358	1322.5	0
0	13364	1322.763226710429	1
0	13365	1322.763226710429	2
0	13383	1325	1
0	13403	1327.5	0
0	13409	1328.066509605077	1
0	13410	1328.066509605077	2
0	13422	1330	1
0	13441	1332.5	0
0	13450	1333.91665873067	1
0	13451	1333.91665873067	2
0	13458	1335	1
0	13480	1337.5	0
0	13486	1337.520604789934	1
0	13487	1337.520604789934	2
0	13504	1340	1
0	13531	1342.5	0
0	13540	1344.033089810041	1
0	13541	1344.033089810041	2
0	13556	1345	1
0	13581	1347.5	0
0	13587	1348.360976368509	1
0	13588	1348.360976368509	2
0	13603	1350	1
0	13620	1352.5	0
0	13626	1352.674018577763	1
0	13627	1352.674018577763	2
0	13647	1355	1
0	13672	1357.5	0
0	13678	1357.51674036729	1
0	13679	1357.51674036729	2
0	13697	1360	1
0	13716	1362.5	0
0	13722	1362.726156389995	1
0	13723	1362.726156389995	2
0	13738	1365	1
0	13755	1367.5	0
0	13764	1369.027406619502	1
0	13765	1369.027406619502	2
0	13774	1370	1
0	13793	1372.5	0
0	13799	1372.572693126875	1
0	13800	1372.572693126875	2
0	13825	1375	1
0	13850	1377.5	0
0	13865	1379.205345553651	1
0	13866	1379.205345553651	2
0	13870	1380	1
0	13895	1382.5	0
0	13901	1382.958772055023	1
0	13902	1382.958772055023	2
0	13917	1385	1
0	13949	1387.5	0
0	13961	1389.418181999106	1
0	13962	1389.418181999106	2
0	13969	1390	1
0	13999	1392.5	0
0	14005	1392.69899314619	1
0	14006	1392.69899314619	2
0	14041	1395	1
0	14047	1395.215585339479	2
0	14048	1395.215585339479	3
0	14071	1397.5	2
0	14077	1398.033492229306	3
0	14078	1398.033492229306	4
0	14096	1400	3
0	14121	1402.5	2
0	14146	1405	1
0	14152	1405.647535723354	2
0	14153	1405.647535723354	3
0	14171	1407.5	2
0	14201	1410	1
0	14218	1411.267643325179	2
0	14219	1411.267643325179	3
0	14231	1412.5	2
0	14256	1415	1
0	14262	1415.661344231258	2
0	14263	1415.661344231258	3
0	14281	1417.5	2
0	14306	1420	1
0	14312	1420.324820313238	2
0	14313	1420.324820313238	3
0	14331	1422.5	2
0	14361	1425	1
0	14367	1425.65724205622	2
0	14368	1425.65724205622	3
0	14386	1427.5	2
0	14406	1430	1
0	14426	1432.5	0
0	14432	1432.6838278336	1
0	14433	1432.6838278336	2
0	14453	1435	1
0	14472	1437.5	0
0	14478	1437.7916009688	1
0	14479	1437.7916009688	2
0	14499	1440	1
0	14524	1442.5	0
0	14530	1442.860883941188	1
0	14531	1442.860883941188	2
0	14554	1445	1
0	14584	1447.5	0
0	14590	1447.905299205345	1
0	14591	1447.905299205345	2
0	14614	1450	1
0	14620	1450.670452495142	2
0	14621	1450.670452495142	3
0	14644	1452.5	2
0	14669	1455	1
0	14694	1457.5	0
0	14706	1458.575275450555	1
0	14707	1458.575275450555	2
0	14719	1460	1
0	14744	1462.5	0
0	14753	1463.246988981866	1
0	14754	1463.246988981866	2
0	14774	1465	1
0	14799	1467.5	0
0	14811	1469.381546754881	1
0	14812	1469.381546754881	2
0	14819	1470	1
0	14841	1472.5	0
0	14847	1473.189433835103	1
0	14848	1473.189433835103	2
0	14860	1475	1
0	14879	1477.5	0
0	14888	1478.348957928509	1
0	14889	1478.348957928509	2
0	14901	1480	1
0	14918	1482.5	0
0	14927	1483.480134701909	1
0	14928	1483.480134701909	2
0	14937	1485	1
0	14951	1487.5	0
0	14957	1487.570716048872	1
0	14958	1487.570716048872	2
0	14970	1490	1
0	14992	1492.5	0
0	14998	1492.525679088529	1
0	14999	1492.525679088529	2
0	15019	1495	1
0	15041	1497.5	0
0	15050	1497.788197647941	1
0	15051	1497.788197647941	2
0	15061	1500	1
0	15088	1502.5	0
0	15094	1502.764777864303	1
0	15095	1502.764777864303	2
0	15115	1505	1
0	15135	1507.5	0
0	15141	1507.811586616027	1
0	15142	1507.811586616027	2
0	15165	1510	1
0	15192	1512.5	0
0	15207	1513.792296080506	1
0	15208	1513.792296080506	2
0	15217	1515	1
0	15242	1517.5	0
0	15248	1518.392259727653	1
0	15249	1518.392259727653	2
0	15264	1520	1
0	15286	1522.5	0
0	15292	1523.134951386527	1
0	15293	1523.134951386527	2
0	15323	1525	1
0	15329	1525.03946001175	2
0	15330	1525.03946001175	3
0	15348	1527.5	2
0	15368	1530	1
0	15398	1532.5	0
0	15407	1533.558319823103	1
0	15408	1533.558319823103	2
0	15428	1535	1
0	15434	1535.094008494817	2
0	15435	1535.094008494817	3
0	15458	1537.5	2
0	15483	1540	1
0	15508	1542.5	0
0	15514	1542.894633878154	1
0	15515	1542.894633878154	2
0	15538	1545	1
0	15566	1547.314535699134	2
0	15567	1547.314535699134	3
0	15568	1547.5	2
0	15593	1550	1
0	15618	1552.5	0
0	15624	1552.500521563456	1
0	15625	1552.500521563456	2
0	15648	1555	1
0	15654	1555.419769659942	2
0	15655	1555.419769659942	3
0	15678	1557.5	2
0	15703	1560	1
0	15731	1562.101880593421	2
0	15732	1562.101880593421	3
0	15738	1562.5	2
0	15763	1565	1
0	15769	1565.37935893394	2
0	15770	1565.37935893394	3
0	15788	1567.5	2
0	15818	1570	1
0	15824	1570.20279540049	2
0	15825	1570.20279540049	3
0	15853	1572.5	2
0	15859	1572.735689860142	3
0	15860	1572.735689860142	4
0	15878	1575	3
0	15908	1577.5	2
0	15936	1579.756340000684	3
0	15937	1579.756340000684	4
0	15938	1580	3
0	15968	1582.5	2
0	15988	1585	1
0	15994	1585.499411118319	2
0	15995	1585.499411118319	3
0	16008	1587.5	2
0	16033	1590	1
0	16039	1590.520432156103	2
0	16040	1590.520432156103	3
0	16058	1592.5	2
0	16083	1595	1
0	16108	1597.5	0
0	16114	1597.924594884757	1
0	16115	1597.924594884757	2
0	16138	1600	1
0	16149	1601.044986554675	2
0	16150	1601.044986554675	3
0	16168	1602.5	2
0	16198	1605	1
0	16223	1607.5	0
0	16232	1608.731403210924	1
0	16233	1608.731403210924	2
0	16248	1610	1
0	16259	1610.973655692539	2
0	16260	1610.973655692539	3
0	16278	1612.5	2
0	16308	1615	1
0	16333	1617.5	0
0	16339	1618.65073519456	1
0	16340	1618.65073519456	2
0	16358	1620	1
0	16369	1620.792392223379	2
0	16370	1620.792392223379	3
0	16393	1622.5	2
0	16418	1625	1
0	16432	1626.233390830162	2
0	16433	1626.233390830162	3
0	16458	1627.5	2
0	16464	1628.525328869948	3
0	16465	1628.525328869948	4
0	16488	1630	3
0	16513	1632.5	2
0	16538	1635	1
0	16544	1636.024929124162	2
0	16545	1636.024929124162	3
0	16563	1637.5	2
0	16588	1640	1
0	16594	1640.183154288105	2
0	16595	1640.183154288105	3
0	16618	1642.5	2
0	16643	1645	1
0	16649	1645.017271090584	2
0	16650	1645.017271090584	3
0	16673	1647.5	2
0	16698	1650	1
0	16704	1650.439927199611	2
0	16705	1650.439927199611	3
0	16728	1652.5	2
0	16748	1655	1
0	16754	1655.496761051454	2
0	16755	1655.496761051454	3
0	16773	1657.5	2
0	16803	1660	1
0	16809	1660.600861255821	2
0	16810	1660.600861255821	3
0	16828	1662.5	2
0	16853	1665	1
0	16883	1667.5	0
0	16889	1668.702626063086	1
0	16890	1668.702626063086	2
0	16918	1670	1
0	16938	1672.5	0
0	16944	1672.955834953591	1
0	16945	1672.955834953591	2
0	16973	1675	1
0	16979	1675.154991386637	2
0	16980	1675.154991386637	3
0	16998	1677.5	2
0	17023	1680	1
0	17043	1682.5	0
0	17049	1682.628052800591	1