version 3
run k_MM1_lbqf-31-20221127-16:03:36-25264
attr configname k_MM1_lbqf
attr datetime 20221127-16:03:36
attr datetimef 20221127-160336
attr experiment k_MM1_lbqf
attr inifile omnetpp.ini
attr iterationvars "$time=2.5, $num=5, $0=33434, $1=56673, $2=23567"
attr iterationvarsd time=2.5/num=5/33434/56673/23567
attr iterationvarsf time=2.5,num=5,33434,56673,23567-
attr measurement "$time=2.5, $num=5, $0=33434, $1=56673, $2=23567"
attr network lbqfkMM1
attr processid 25264
attr repetition 3
attr replication #3
attr resultdir results
attr runnumber 31
attr seedset 31
itervar num 5
itervar time 2.5
config description "MM1 module k-times lbqf"
config network lbqfkMM1
config **.interArrivalTime "truncnormal(uniform(0.5s, 1.5s), uniform(0.25s, 0.75s))"
config **.serviceTime 2.5s
config **.c 5
config **.capacity 10000
config record-eventlog false
config **.scalar-recording true
config **.vector-recording true
config repeat 4
config seed-1-mt 33434
config seed-2-mt 56673
config seed-3-mt 23567
config output-vector-file k_MM1_lbqf-5-2.5-results/3.vec
config output-scalar-file k_MM1_lbqf-5-2.5-results/3.sca

vector 0 lbqfkMM1.mm1[0] queueLength:vector ETV
attr interpolationmode none
attr recordingmode vector
attr title "queue length"
vector 1 lbqfkMM1.mm1[1] queueLength:vector ETV
attr interpolationmode none
attr recordingmode vector
attr title "queue length"
vector 2 lbqfkMM1.mm1[2] queueLength:vector ETV
attr interpolationmode none
attr recordingmode vector
attr title "queue length"
vector 3 lbqfkMM1.mm1[3] queueLength:vector ETV
attr interpolationmode none
attr recordingmode vector
attr title "queue length"
vector 4 lbqfkMM1.mm1[0] util:vector ETV
attr interpolationmode none
attr recordingmode vector
attr title resources
vector 5 lbqfkMM1.mm1[1] util:vector ETV
attr interpolationmode none
attr recordingmode vector
attr title resources
vector 6 lbqfkMM1.mm1[2] util:vector ETV
attr interpolationmode none
attr recordingmode vector
attr title resources
vector 7 lbqfkMM1.mm1[3] util:vector ETV
attr interpolationmode none
attr recordingmode vector
attr title resources
vector 8 lbqfkMM1.mm1[4] queueLength:vector ETV
attr interpolationmode none
attr recordingmode vector
attr title "queue length"
vector 9 lbqfkMM1.mm1[4] util:vector ETV
attr interpolationmode none
attr recordingmode vector
attr title resources
0	5	10	1
0	21	12.5	0
0	30	13.17809874515	1
0	31	13.17809874515	2
0	43	15	1
0	73	17.443593217667	2
0	74	17.443593217667	3
0	75	17.5	2
0	100	20	1
0	125	22.5	0
0	137	23.858014612435	1
0	138	23.858014612435	2
0	155	25	1
0	180	26.550672867933	2
0	181	26.550672867933	3
0	190	27.5	2
0	210	30	1
0	238	32.257567437014	2
0	239	32.257567437014	3
0	240	32.5	2
0	275	35	1
0	281	35.082386892521	2
0	282	35.082386892521	3
0	300	37.5	2
0	330	40	1
0	336	40.05660573877	2
0	337	40.05660573877	3
0	360	42.5	2
0	385	44.632904577319	3
0	386	44.632904577319	4
0	390	45	3
0	420	47.5	2
0	440	49.0242352639	3
0	441	49.0242352639	4
0	455	50	3
0	480	52.5	2
0	486	52.852356022087	3
0	487	52.852356022087	4
0	505	55	3
0	530	57.5	2
0	544	58.084445153985	3
0	545	58.084445153985	4
0	560	60	3
0	585	62.5	2
0	605	64.056619598299	3
0	606	64.056619598299	4
0	610	65	3
0	640	67.5	2
0	660	69.059610901105	3
0	661	69.059610901105	4
0	665	70	3
0	695	72.5	2
0	718	74.841465385242	3
0	719	74.841465385242	4
0	720	75	3
0	750	77.5	2
0	773	79.972257747035	3
0	774	79.972257747035	4
0	775	80	3
0	805	82.5	2
0	822	83.666904054481	3
0	823	83.666904054481	4
0	830	85	3
0	850	87.5	2
0	883	89.750509500494	3
0	884	89.750509500494	4
0	885	90	3
0	923	92.271002106686	4
0	924	92.271002106686	5
0	930	92.5	4
0	955	95	3
0	975	97.08289952944	4
0	976	97.08289952944	5
0	980	97.5	4
0	1005	100	3
0	1030	102.5	2
0	1036	102.816175210198	3
0	1037	102.816175210198	4
0	1070	105	3
0	1082	106.027615103141	4
0	1083	106.027615103141	5
0	1095	107.5	4
0	1120	110	3
0	1140	112.5	2
0	1152	113.562563051908	3
0	1153	113.562563051908	4
0	1165	115	3
0	1195	117.5	2
0	1204	118.254654050119	3
0	1205	118.254654050119	4
0	1225	120	3
0	1247	121.414631367847	4
0	1248	121.414631367847	5
0	1255	122.5	4
0	1280	125	3
0	1305	127.5	2
0	1311	127.701086648266	3
0	1312	127.701086648266	4
0	1335	130	3
0	1360	132.5	2
0	1366	132.841533864201	3
0	1367	132.841533864201	4
0	1385	135	3
0	1410	137.5	2
0	1424	138.131055528506	3
0	1425	138.131055528506	4
0	1440	140	3
0	1465	142.5	2
0	1482	143.678118778599	3
0	1483	143.678118778599	4
0	1490	145	3
0	1515	147.5	2
0	1540	149.178541874944	3
0	1541	149.178541874944	4
0	1545	150	3
0	1570	152.5	2
0	1595	155	1
0	1601	155.024710080047	2
0	1602	155.024710080047	3
0	1620	157.5	2
0	1650	160	1
0	1656	160.215284379617	2
0	1657	160.215284379617	3
0	1685	162.5	2
0	1705	164.400643164733	3
0	1706	164.400643164733	4
0	1715	165	3
0	1740	167.5	2
0	1763	169.908566727418	3
0	1764	169.908566727418	4
0	1765	170	3
0	1795	172.5	2
0	1815	174.385827745881	3
0	1816	174.385827745881	4
0	1820	175	3
0	1850	177.5	2
0	1870	180	1
0	1882	181.00941761671	2
0	1883	181.00941761671	3
0	1895	182.5	2
0	1925	184.578392387343	3
0	1926	184.578392387343	4
0	1930	185	3
0	1955	187.5	2
0	1980	190	1
0	1989	190.589567297639	2
0	1990	190.589567297639	3
0	2010	192.5	2
0	2038	194.790759107601	3
0	2039	194.790759107601	4
0	2040	195	3
0	2060	197.5	2
0	2090	200	1
0	2099	200.64762648143	2
0	2100	200.64762648143	3
0	2115	202.5	2
0	2140	205	1
0	2160	207.004883098514	2
0	2161	207.004883098514	3
0	2165	207.5	2
0	2195	210	1
0	2212	210.83660518843	2
0	2213	210.83660518843	3
0	2225	212.5	2
0	2250	215	1
0	2270	217.5	0
0	2279	218.110346234216	1
0	2280	218.110346234216	2
0	2295	220	1
0	2325	222.5	0
0	2337	223.472616421212	1
0	2338	223.472616421212	2
0	2345	225	1
0	2375	227.5	0
0	2381	228.079865612496	1
0	2382	228.079865612496	2
0	2397	230	1
0	2424	232.5	0
0	2433	233.353878009054	1
0	2434	233.353878009054	2
0	2449	235	1
0	2479	237.5	0
0	2488	238.504418869935	1
0	2489	238.504418869935	2
0	2509	240	1
0	2534	242.5	0
0	2540	242.667825876651	1
0	2541	242.667825876651	2
0	2569	245	1
0	2589	247.5	0
0	2595	248.145277520518	1
0	2596	248.145277520518	2
0	2614	250	1
0	2639	252.5	0
0	2645	252.997644331515	1
0	2646	252.997644331515	2
0	2666	255	1
0	2688	256.101929060774	2
0	2689	256.101929060774	3
0	2698	257.5	2
0	2728	260	1
0	2740	261.00889275497	2
0	2741	261.00889275497	3
0	2758	262.5	2
0	2783	265	1
0	2798	266.192228470395	2
0	2799	266.192228470395	3
0	2808	267.5	2
0	2828	270	1
0	2853	272.5	0
0	2859	272.981719738405	1
0	2860	272.981719738405	2
0	2878	275	1
0	2911	277.465419313576	2
0	2912	277.465419313576	3
0	2913	277.5	2
0	2938	280	1
0	2958	282.5	0
0	2964	282.939574235072	1
0	2965	282.939574235072	2
0	2975	285	1
0	3002	287.5	0
0	3011	288.464942237937	1
0	3012	288.464942237937	2
0	3019	290	1
0	3051	292.5	0
0	3073	295.238839908016	1
0	3091	297.738839908016	0
0	3097	298.681504536573	1
0	3098	298.681504536573	2
0	3112	300.238839908016	1
0	3131	302.738839908016	0
0	3137	303.551246982458	1
0	3138	303.551246982458	2
0	3158	305.238839908016	1
0	3178	307.738839908016	0
0	3184	307.825135447385	1
0	3185	307.825135447385	2
0	3205	310.238839908016	1
0	3227	312.738839908016	0
0	3236	313.517351362452	1
0	3237	313.517351362452	2
0	3262	315.238839908016	1
0	3271	316.349534318299	2
0	3272	316.349534318299	3
0	3282	317.738839908016	2
0	3312	320.238839908016	1
0	3332	322.738839908016	0
0	3338	322.847687576966	1
0	3339	322.847687576966	2
0	3362	325.238839908016	1
0	3379	327.738839908016	0
0	3385	328.87138505343	1
0	3386	328.87138505343	2
0	3403	330.238839908016	1
0	3423	332.738839908016	0
0	3429	333.193175551047	1
0	3430	333.193175551047	2
0	3453	335.238839908016	1
0	3467	337.738839908016	0
0	3473	338.429422311701	1
0	3474	338.429422311701	2
0	3489	340.238839908016	1
0	3508	342.738839908016	0
0	3514	343.296028134658	1
0	3515	343.296028134658	2
0	3535	345.238839908016	1
0	3557	347.738839908016	0
0	3563	348.281396574451	1
0	3564	348.281396574451	2
0	3587	350.238839908016	1
0	3612	352.738839908016	0
0	3621	353.948077526124	1
0	3622	353.948077526124	2
0	3637	355.238839908016	1
0	3662	357.738839908016	0
0	3668	357.767235421056	1
0	3669	357.767235421056	2
0	3689	360.238839908016	1
0	3714	362.738839908016	0
0	3720	362.897260967349	1
0	3721	362.897260967349	2
0	3744	365.238839908016	1
0	3761	367.738839908016	0
0	3767	368.142792224835	1
0	3768	368.142792224835	2
0	3783	370.238839908016	1
0	3800	372.738839908016	0
0	3806	373.674622325648	1
0	3807	373.674622325648	2
0	3824	375.238839908016	1
0	3843	377.738839908016	0
0	3852	378.386948601487	1
0	3853	378.386948601487	2
0	3873	380.238839908016	1
0	3898	382.512570100356	2
0	3899	382.512570100356	3
0	3903	382.738839908016	2
0	3933	385.238839908016	1
0	3953	387.738839908016	0
0	3962	388.276074578094	1
0	3963	388.276074578094	2
0	3978	390.238839908016	1
0	4003	392.738839908016	0
0	4009	393.253471183583	1
0	4010	393.253471183583	2
0	4030	395.238839908016	1
0	4052	397.738839908016	0
0	4058	398.343871360783	1
0	4059	398.343871360783	2
0	4077	400.238839908016	1
0	4102	402.738839908016	0
0	4111	403.934719086391	1
0	4112	403.934719086391	2
0	4124	405.238839908016	1
0	4151	407.738839908016	0
0	4157	408.373904474406	1
0	4158	408.373904474406	2
0	4181	410.238839908016	1
0	4206	412.738839908016	0
0	4212	412.742722620191	1
0	4213	412.742722620191	2
0	4236	415.238839908016	1
0	4252	416.055942779713	2
0	4253	416.055942779713	3
0	4281	417.738839908016	2
0	4295	419.469396136185	3
0	4296	419.469396136185	4
0	4306	420.238839908016	3
0	4331	422.738839908016	2
0	4353	424.777181097579	3
0	4354	424.777181097579	4
0	4361	425.238839908016	3
0	4391	427.738839908016	2
0	4405	429.027767676745	3
0	4406	429.027767676745	4
0	4426	430.238839908016	3
0	4451	432.738839908016	2
0	4457	432.833804086415	3
0	4458	432.833804086415	4
0	4476	435.238839908016	3
0	4500	436.650724721055	4
0	4501	436.650724721055	5
0	4516	437.738839908016	4
0	4546	440.238839908016	3
0	4555	441.59299987656	4
0	4556	441.59299987656	5
0	4571	442.738839908016	4
0	4601	445.238839908016	3
0	4607	446.01895841398	4
0	4608	446.01895841398	5
0	4626	447.738839908016	4
0	4646	450.238839908016	3
0	4674	452.537916637217	4
0	4675	452.537916637217	5
0	4676	452.738839908016	4
0	4701	455.238839908016	3
0	4726	457.738839908016	2
0	4732	458.250653313033	3
0	4733	458.250653313033	4
0	4751	460.238839908016	3
0	4771	462.738839908016	2
0	4793	464.70335954912	3
0	4794	464.70335954912	4
0	4801	465.238839908016	3
0	4826	467.738839908016	2
0	4851	470.238839908016	1
0	4857	470.968979205776	2
0	4858	470.968979205776	3
0	4876	472.738839908016	2
0	4901	475.238839908016	1
0	4924	477.490611588755	2
0	4925	477.490611588755	3
0	4926	477.738839908016	2
0	4956	480.238839908016	1
0	4970	481.954541566561	2
0	4971	481.954541566561	3
0	4981	482.738839908016	2
0	5006	485.238839908016	1
0	5025	486.818222187008	2
0	5026	486.818222187008	3
0	5046	487.738839908016	2
0	5071	490.238839908016	1
0	5077	490.77953396904	2
0	5078	490.77953396904	3
0	5106	492.738839908016	2
0	5120	494.393675341035	3
0	5121	494.393675341035	4
0	5136	495.238839908016	3
0	5161	497.738839908016	2
0	5181	500.238839908016	1
0	5187	500.641706547035	2
0	5188	500.641706547035	3
0	5211	502.738839908016	2
0	5239	505.109128892636	3
0	5240	505.109128892636	4
0	5241	505.238839908016	3
0	5266	507.738839908016	2
0	5291	510.238839908016	1
0	5300	511.513701023636	2
0	5301	511.513701023636	3
0	5316	512.738839908016	2
0	5349	515.155787398834	3
0	5350	515.155787398834	4
0	5351	515.238839908016	3
0	5376	517.738839908016	2
0	5401	520.238839908016	1
0	5407	520.935199234123	2
0	5408	520.935199234123	3
0	5426	522.738839908016	2
0	5451	525.238839908016	1
0	5462	526.240481417686	2
0	5463	526.240481417686	3
0	5481	527.738839908016	2
0	5506	530.238839908016	1
0	5526	532.738839908016	0
0	5532	533.460868111156	1
0	5533	533.460868111156	2
0	5561	535.238839908016	1
0	5578	537.322193687298	2
0	5579	537.322193687298	3
0	5586	537.738839908016	2
0	5616	540.238839908016	1
0	5627	540.925673472645	2
0	5628	540.925673472645	3
0	5651	542.738839908016	2
0	5676	545.238839908016	1
0	5682	545.642562334845	2
0	5683	545.642562334845	3
0	5701	547.738839908016	2
0	5731	550.238839908016	1
0	5740	551.631161411974	2
0	5741	551.631161411974	3
0	5751	552.738839908016	2
0	5776	555.238839908016	1
0	5795	556.893157260981	2
0	5796	556.893157260981	3
0	5811	557.738839908016	2
0	5841	560.238839908016	1
0	5847	560.352056342717	2
0	5848	560.352056342717	3
0	5871	562.738839908016	2
0	5896	565.238839908016	1
0	5902	565.411244101367	2
0	5903	565.411244101367	3
0	5921	567.738839908016	2
0	5951	570.238839908016	1
0	5960	571.472175326637	2
0	5961	571.472175326637	3
0	5976	572.738839908016	2
0	6001	575.238839908016	1
0	6015	576.343404319364	2
0	6016	576.343404319364	3
0	6026	577.738839908016	2
0	6056	580.238839908016	1
0	6067	580.706379604825	2
0	6068	580.706379604825	3
0	6091	582.738839908016	2
0	6119	585.101577592909	3
0	6120	585.101577592909	4
0	6121	585.238839908016	3
0	6141	587.738839908016	2
0	6171	590.238839908016	1
0	6177	590.561137145147	2
0	6178	590.561137145147	3
0	6196	592.738839908016	2
0	6221	595.238839908016	1
0	6235	596.668697501316	2
0	6236	596.668697501316	3
0	6256	597.738839908016	2
0	6276	600.238839908016	1
0	6296	602.456022174685	2
0	6297	602.456022174685	3
0	6301	602.738839908016	2
0	6326	605.238839908016	1
0	6345	606.453546078736	2
0	6346	606.453546078736	3
0	6361	607.738839908016	2
0	6386	610.238839908016	1
0	6406	612.738839908016	0
0	6412	613.165853291954	1
0	6413	613.165853291954	2
0	6431	615.238839908016	1
0	6458	617.376920700867	2
0	6459	617.376920700867	3
0	6466	617.738839908016	2
0	6491	620.238839908016	1
0	6516	622.738839908016	0
0	6522	623.091958844863	1
0	6523	623.091958844863	2
0	6546	625.238839908016	1
0	6571	627.738839908016	0
0	6577	628.706301495889	1
0	6578	628.706301495889	2
0	6596	630.238839908016	1
0	6621	632.738839908016	0
0	6630	634.044053668425	1
0	6631	634.044053668425	2
0	6643	635.238839908016	1
0	6665	637.738839908016	0
0	6671	638.19950223714	1
0	6672	638.19950223714	2
0	6687	640.238839908016	1
0	6714	642.738839908016	0
0	6720	643.530580136101	1
0	6721	643.530580136101	2
0	6739	645.238839908016	1
0	6764	647.738839908016	0
0	6770	647.841765772727	1
0	6771	647.841765772727	2
0	6791	650.238839908016	1
0	6816	652.738839908016	0
0	6822	652.974241805635	1
0	6823	652.974241805635	2
0	6841	655.238839908016	1
0	6858	657.738839908016	0
0	6864	658.013387316242	1
0	6865	658.013387316242	2
0	6877	660.238839908016	1
0	6899	662.738839908016	0
0	6908	663.949936748575	1
0	6909	663.949936748575	2
0	6916	665.238839908016	1
0	6945	667.738839908016	0
0	6951	667.996281706723	1
0	6952	667.996281706723	2
0	6970	670.238839908016	1
0	6995	672.738839908016	0
0	7001	673.221794592096	1
0	7002	673.221794592096	2
0	7022	675.238839908016	1
0	7042	677.738839908016	0
0	7048	678.572811638967	1
0	7049	678.572811638967	2
0	7064	680.238839908016	1
0	7091	682.738839908016	0
0	7097	683.831608746856	1
0	7098	683.831608746856	2
0	7113	685.238839908016	1
0	7135	687.738839908016	0
0	7141	688.547793789794	1
0	7142	688.547793789794	2
0	7162	690.238839908016	1
0	7187	692.738839908016	0
0	7193	693.122518003634	1
0	7194	693.122518003634	2
0	7217	695.238839908016	1
0	7228	696.281394430819	2
0	7229	696.281394430819	3
0	7247	697.738839908016	2
0	7272	700.238839908016	1
0	7305	702.639424233454	2
0	7306	702.639424233454	3
0	7307	702.738839908016	2
0	7332	705.238839908016	1
0	7338	705.767502059099	2
0	7339	705.767502059099	3
0	7362	707.738839908016	2
0	7387	710.238839908016	1
0	7393	710.243382109694	2
0	7394	710.243382109694	3
0	7412	712.738839908016	2
0	7447	715.238839908016	1
0	7453	716.315256304128	2
0	7454	716.315256304128	3
0	7477	717.738839908016	2
0	7488	719.304015321514	3
0	7489	719.304015321514	4
0	7502	720.238839908016	3
0	7527	722.738839908016	2
0	7552	725.238839908016	1
0	7558	725.338307838999	2
0	7559	725.338307838999	3
0	7577	727.738839908016	2
0	7612	730.238839908016	1
0	7618	731.442704624323	2
0	7619	731.442704624323	3
0	7642	732.738839908016	2
0	7675	735.106469136836	3
0	7676	735.106469136836	4
0	7677	735.238839908016	3
0	7707	737.738839908016	2
0	7716	739.466101825432	3
0	7717	739.466101825432	4
0	7727	740.238839908016	3
0	7747	742.738839908016	2
0	7772	745.238839908016	1
0	7778	745.76485035167	2
0	7779	745.76485035167	3
0	7797	747.738839908016	2
0	7827	750.238839908016	1
0	7833	751.345226080471	2
0	7834	751.345226080471	3
0	7857	752.738839908016	2
0	7882	755.238839908016	1
0	7902	757.738839908016	0
0	7908	759.135465265112	1
0	7909	759.135465265112	2
0	7927	760.238839908016	1
0	7954	762.738839908016	0
0	7969	764.771827656184	1
0	7970	764.771827656184	2
0	7974	765.238839908016	1
0	7999	767.738839908016	0
0	8005	768.048104049353	1
0	8006	768.048104049353	2
0	8021	770.238839908016	1
0	8043	772.738839908016	0
0	8049	773.071097671773	1
0	8050	773.071097671773	2
0	8070	775.238839908016	1
0	8092	777.738839908016	0
0	8098	777.790798410737	1
0	8099	777.790798410737	2
0	8119	780.238839908016	1
0	8144	782.738839908016	0
0	8150	783.222740362781	1
0	8151	783.222740362781	2
0	8179	785.238839908016	1
0	8185	785.745958479553	2
0	8186	785.745958479553	3
0	8204	787.738839908016	2
0	8229	790.238839908016	1
0	8254	792.738839908016	0
0	8260	793.336032101949	1
0	8261	793.336032101949	2
0	8284	795.238839908016	1
0	8314	797.738839908016	0
0	8320	798.695724799696	1
0	8321	798.695724799696	2
0	8339	800.238839908016	1
0	8350	800.969681420517	2
0	8351	800.969681420517	3
0	8369	802.738839908016	2
0	8399	805.238839908016	1
0	8405	806.136023599779	2
0	8406	806.136023599779	3
0	8419	807.738839908016	2
0	8444	810.238839908016	1
0	8474	812.738839908016	0
0	8480	813.36319054956	1
0	8481	813.36319054956	2
0	8499	815.238839908016	1
0	8524	817.738839908016	0
0	8530	819.064310766286	1
0	8531	819.064310766286	2
0	8544	820.238839908016	1
0	8568	822.738839908016	0
0	8574	823.150721097775	1
0	8575	823.150721097775	2
0	8590	825.238839908016	1
0	8617	827.738839908016	0
0	8623	828.298974083691	1
0	8624	828.298974083691	2
0	8637	830.238839908016	1
0	8667	832.738839908016	0
0	8673	833.25649302897	1
0	8674	833.25649302897	2
0	8689	835.238839908016	1
0	8719	837.738839908016	0
0	8725	839.254780913071	1
0	8726	839.254780913071	2
0	8744	840.238839908016	1
0	8761	842.738839908016	0
0	8767	843.643663141954	1
0	8768	843.643663141954	2
0	8785	845.238839908016	1
0	8810	847.738839908016	0
0	8816	848.167162691012	1
0	8817	848.167162691012	2
0	8835	850.238839908016	1
0	8854	852.738839908016	0
0	8860	853.542192583305	1
0	8861	853.542192583305	2
0	8876	855.238839908016	1
0	8898	857.738839908016	0
0	8904	858.265712908365	1
0	8905	858.265712908365	2
0	8920	860.238839908016	1
0	8945	862.738839908016	0
0	8951	862.746355375338	1
0	8952	862.746355375338	2
0	8977	865.238839908016	1
0	9002	867.738839908016	0
0	9011	869.053935999695	1
0	9012	869.053935999695	2
0	9022	870.238839908016	1
0	9044	872.738839908016	0
0	9050	873.423947672493	1
0	9051	873.423947672493	2
0	9061	875.238839908016	1
0	9080	877.738839908016	0
0	9086	878.441183768005	1
0	9087	878.441183768005	2
0	9109	880.238839908016	1
0	9126	882.738839908016	0
0	9135	884.086463929463	1
0	9136	884.086463929463	2
0	9148	885.238839908016	1
0	9175	887.738839908016	0
0	9181	888.243039052298	1
0	9182	888.243039052298	2
0	9205	890.238839908016	1
0	9227	892.081875891131	2
0	9228	892.081875891131	3
0	9235	892.738839908016	2
0	9260	895.238839908016	1
0	9285	897.738839908016	0
0	9291	898.589315398744	1
0	9292	898.589315398744	2
0	9310	900.238839908016	1
0	9340	902.614235302589	2
0	9341	902.614235302589	3
0	9345	902.738839908016	2
0	9370	905.238839908016	1
0	9395	907.374275189831	2
0	9396	907.374275189831	3
0	9400	907.738839908016	2
0	9425	910.238839908016	1
0	9450	912.738839908016	0
0	9456	913.308080940366	1
0	9457	913.308080940366	2
0	9480	915.238839908016	1
0	9500	917.738839908016	0
0	9512	919.470118314833	1
0	9513	919.470118314833	2
0	9520	920.238839908016	1
0	9537	922.738839908016	0
0	9543	923.126948840822	1
0	9544	923.126948840822	2
0	9558	925.238839908016	1
0	9580	927.738839908016	0
0	9592	929.359954371901	1
0	9593	929.359954371901	2
0	9597	930.238839908016	1
0	9621	932.738839908016	0
0	9627	933.201985967581	1
0	9628	933.201985967581	2
0	9648	935.238839908016	1
0	9673	937.738839908016	0
0	9679	937.812290826575	1
0	9680	937.812290826575	2
0	9703	940.238839908016	1
0	9714	940.843189880502	2
0	9715	940.843189880502	3
0	9740	942.738839908016	2
0	9765	945.238839908016	1
0	9774	945.987461419194	2
0	9775	945.987461419194	3
0	9790	947.738839908016	2
0	9815	950.238839908016	1
0	9835	952.269154218645	2
0	9836	952.269154218645	3
0	9840	952.738839908016	2
0	9870	955.238839908016	1
0	9882	956.168464764714	2
0	9883	956.168464764714	3
0	9895	957.738839908016	2
0	9925	960.238839908016	1
0	9934	960.711700958367	2
0	9935	960.711700958367	3
0	9955	962.738839908016	2
0	9985	965.238839908016	1
0	9991	965.36928059242	2
0	9992	965.36928059242	3
0	10020	967.738839908016	2
0	10029	968.18849345415	3
0	10030	968.18849345415	4
0	10045	970.238839908016	3
0	10075	972.738839908016	2
0	10095	975.238839908016	1
0	10104	975.786688206626	2
0	10105	975.786688206626	3
0	10125	977.738839908016	2
0	10142	978.902232990863	3
0	10143	978.902232990863	4
0	10155	980.238839908016	3
0	10185	982.738839908016	2
0	10197	983.810734371588	3
0	10198	983.810734371588	4
0	10210	985.238839908016	3
0	10235	987.738839908016	2
0	10249	988.508612489217	3
0	10250	988.508612489217	4
0	10265	990.238839908016	3
0	10290	992.738839908016	2
0	10307	993.881200232527	3
0	10308	993.881200232527	4
0	10320	995.238839908016	3
0	10350	997.738839908016	2
0	10362	998.835239332339	3
0	10363	998.835239332339	4
0	10370	1000.238839908016	3
0	10400	1002.738839908016	2
0	10425	1005.238839908016	1
0	10434	1006.064098727343	2
0	10435	1006.064098727343	3
0	10450	1007.738839908016	2
0	10475	1010.238839908016	1
0	10495	1012.241408867126	2
0	10496	1012.241408867126	3
0	10500	1012.738839908016	2
0	10530	1015.238839908016	1
0	10539	1015.704588604905	2
0	10540	1015.704588604905	3
0	10555	1017.738839908016	2
0	10585	1020.238839908016	1
0	10597	1021.161595888645	2
0	10598	1021.161595888645	3
0	10610	1022.738839908016	2
0	10635	1025.238839908016	1
0	10660	1027.738839908016	0
0	10666	1028.397712604747	1
0	10667	1028.397712604747	2
0	10690	1030.238839908016	1
0	10710	1032.738839908016	0
0	10716	1032.796378986514	1
0	10717	1032.796378986514	2
0	10735	1035.238839908016	1
0	10757	1037.738839908016	0
0	10763	1038.560396310166	1
0	10764	1038.560396310166	2
0	10784	1040.238839908016	1
0	10801	1042.738839908016	0
0	10807	1043.232475966611	1
0	10808	1043.232475966611	2
0	10833	1045.238839908016	1
0	10853	1047.738839908016	0
0	10859	1048.123358650442	1
0	10860	1048.123358650442	2
0	10883	1050.238839908016	1
0	10913	1052.738839908016	0
0	10925	1054.315026047917	1
0	10926	1054.315026047917	2
0	10933	1055.238839908016	1
0	10958	1057.738839908016	0
0	10964	1058.024986787729	1
0	10965	1058.024986787729	2
0	10980	1060.238839908016	1
0	11002	1062.738839908016	0
0	11008	1062.912950498909	1
0	11009	1062.912950498909	2
0	11029	1065.238839908016	1
0	11051	1067.738839908016	0
0	11057	1067.913189426067	1
0	11058	1067.913189426067	2
0	11073	1070.238839908016	1
0	11103	1072.738839908016	0
0	11112	1073.619194445298	1
0	11113	1073.619194445298	2
0	11128	1075.238839908016	1
0	11150	1077.738839908016	0
0	11156	1077.928081864381	1
0	11157	1077.928081864381	2
0	11182	1080.238839908016	1
0	11188	1081.038822291419	2
0	11189	1081.038822291419	3
0	11202	1082.738839908016	2
0	11232	1085.238839908016	1
0	11243	1086.301824393244	2
0	11244	1086.301824393244	3
0	11262	1087.738839908016	2
0	11282	1090.238839908016	1
0	11307	1092.738839908016	0
0	11316	1094.188070851788	1
0	11317	1094.188070851788	2
0	11327	1095.238839908016	1
0	11346	1097.738839908016	0
0	11352	1098.177308970465	1
0	11353	1098.177308970465	2
0	11370	1100.238839908016	1
0	11392	1102.738839908016	0
0	11398	1103.611395200888	1
0	11399	1103.611395200888	2
0	11409	1105.238839908016	1
0	11436	1107.738839908016	0
0	11442	1107.79177518065	1
0	11443	1107.79177518065	2
0	11463	1110.238839908016	1
0	11474	1110.836731511616	2
0	11475	1110.836731511616	3
0	11498	1112.738839908016	2
0	11533	1115.238839908016	1
0	11542	1116.431722472672	2
0	11543	1116.431722472672	3
0	11558	1117.738839908016	2
0	11583	1120.238839908016	1
0	11589	1120.894432535941	2
0	11590	1120.894432535941	3
0	11608	1122.738839908016	2
0	11638	1125.238839908016	1
0	11644	1125.477125646687	2
0	11645	1125.477125646687	3
0	11663	1127.738839908016	2
0	11693	1130.238839908016	1
0	11710	1132.260543139658	2
0	11711	1132.260543139658	3
0	11718	1132.738839908016	2
0	11743	1135.238839908016	1
0	11757	1136.475689250028	2
0	11758	1136.475689250028	3
0	11768	1137.738839908016	2
0	11793	1140.238839908016	1
0	11818	1142.738839908016	0
0	11824	1143.348217986633	1
0	11825	1143.348217986633	2
0	11843	1145.238839908016	1
0	11870	1147.738839908016	0
0	11876	1148.590983845712	1
0	11877	1148.590983845712	2
0	11910	1150.238839908016	1
0	11916	1150.868827556492	2
0	11917	1150.868827556492	3
0	11935	1152.738839908016	2
0	11960	1155.238839908016	1
0	11977	1156.820364491064	2
0	11978	1156.820364491064	3
0	11985	1157.738839908016	2
0	12010	1160.238839908016	1
0	12030	1162.738839908016	0
0	12036	1163.232632491734	1
0	12037	1163.232632491734	2
0	12055	1165.238839908016	1
0	12080	1167.738839908016	0
0	12086	1168.128959163075	1
0	12087	1168.128959163075	2
0	12102	1170.238839908016	1
0	12134	1172.738839908016	0
0	12140	1173.581838627044	1
0	12141	1173.581838627044	2
0	12164	1175.238839908016	1
0	12184	1177.738839908016	0
0	12190	1178.024064057631	1
0	12191	1178.024064057631	2
0	12209	1180.238839908016	1
0	12239	1182.738839908016	0
0	12245	1182.844957046078	1
0	12246	1182.844957046078	2
0	12271	1185.238839908016	1
0	12277	1185.359149892413	2
0	12278	1185.359149892413	3
0	12296	1187.738839908016	2
0	12326	1190.238839908016	1
0	12351	1192.738839908016	0
0	12360	1193.457501604407	1
0	12361	1193.457501604407	2
0	12381	1195.238839908016	1
0	12395	1196.408768222924	2
0	12396	1196.408768222924	3
0	12411	1197.738839908016	2
0	12441	1200.238839908016	1
0	12447	1200.336139925794	2
0	12448	1200.336139925794	3
0	12471	1202.738839908016	2
0	12496	1205.238839908016	1
0	12502	1205.256208420572	2
0	12503	1205.256208420572	3
0	12521	1207.738839908016	2
0	12546	1210.238839908016	1
0	12571	1212.738839908016	0
0	12577	1212.955805475261	1
0	12578	1212.955805475261	2
0	12601	1215.238839908016	1
0	12615	1216.199199027785	2
0	12616	1216.199199027785	3
0	12631	1217.738839908016	2
0	12656	1220.238839908016	1
0	12670	1221.040441221833	2
0	12671	1221.040441221833	3
0	12686	1222.738839908016	2
0	12711	1225.238839908016	1
0	12725	1225.988349150233	2
0	12726	1225.988349150233	3
0	12751	1227.738839908016	2
0	12765	1228.796030613027	3
0	12766	1228.796030613027	4
0	12786	1230.238839908016	3
0	12811	1232.738839908016	2
0	12817	1232.951305420722	3
0	12818	1232.951305420722	4
0	12841	1235.238839908016	3
0	12866	1237.738839908016	2
0	12872	1238.058984687737	3
0	12873	1238.058984687737	4
0	12891	1240.238839908016	3
0	12929	1242.442973377806	4
0	12930	1242.442973377806	5
0	12931	1242.738839908016	4
0	12961	1245.238839908016	3
0	12967	1245.525413401838	4
0	12968	1245.525413401838	5
0	12991	1247.738839908016	4
0	13016	1250.238839908016	3
0	13036	1252.738839908016	2
0	13042	1252.837210182026	3
0	13043	1252.837210182026	4
0	13061	1255.238839908016	3
0	13086	1257.738839908016	2
0	13095	1258.42086398398	3
0	13096	1258.42086398398	4
0	13111	1260.238839908016	3
0	13136	1262.738839908016	2
0	13161	1265.238839908016	1
0	13170	1266.510474666955	2
0	13171	1266.510474666955	3
0	13186	1267.738839908016	2
0	13213	1269.747316503483	3
0	13214	1269.747316503483	4
0	13221	1270.238839908016	3
0	13241	1272.738839908016	2
0	13266	1275.238839908016	1
0	13272	1275.322020993765	2
0	13273	1275.322020993765	3
0	13296	1277.738839908016	2
0	13321	1280.238839908016	1
0	13327	1280.334235457317	2
0	13328	1280.334235457317	3
0	13351	1282.738839908016	2
0	13376	1285.238839908016	1
0	13385	1286.396759819273	2
0	13386	1286.396759819273	3
0	13406	1287.738839908016	2
0	13436	1290.238839908016	1
0	13451	1292.738839908016	0
0	13457	1292.778858934177	1
0	13458	1292.778858934177	2
0	13476	1295.238839908016	1
0	13501	1297.738839908016	0
0	13507	1298.022351860244	1
0	13508	1298.022351860244	2
0	13531	1300.238839908016	1
0	13561	1302.738839908016	0
0	13570	1303.681254001482	1
0	13571	1303.681254001482	2
0	13586	1305.238839908016	1
0	13619	1307.732098468734	2
0	13620	1307.732098468734	3
0	13621	1307.738839908016	2
0	13651	1310.238839908016	1
0	13671	1312.738839908016	0
0	13680	1313.232904413161	1
0	13681	1313.232904413161	2
0	13701	1315.238839908016	1
0	13707	1315.506656745418	2
0	13708	1315.506656745418	3
0	13726	1317.738839908016	2
0	13756	1320.238839908016	1
0	13776	1322.738839908016	0
0	13782	1322.748912968881	1
0	13783	1322.748912968881	2
0	13806	1325.238839908016	1
0	13831	1327.738839908016	0
0	13840	1328.749493144429	1
0	13841	1328.749493144429	2
0	13851	1330.238839908016	1
0	13883	1332.738839908016	0
0	13889	1333.723798774246	1
0	13890	1333.723798774246	2
0	13908	1335.238839908016	1
0	13933	1337.738839908016	0
0	13939	1338.36414863326	1
0	13940	1338.36414863326	2
0	13958	1340.238839908016	1
0	13978	1342.738839908016	0
0	13984	1343.13307940438	1
0	13985	1343.13307940438	2
0	14017	1345.238839908016	1
0	14026	1346.67091096119	2
0	14027	1346.67091096119	3
0	14037	1347.738839908016	2
0	14067	1350.238839908016	1
0	14073	1350.247588673484	2
0	14074	1350.247588673484	3
0	14092	1352.738839908016	2
0	14122	1355.238839908016	1
0	14136	1356.31280471955	2
0	14137	1356.31280471955	3
0	14152	1357.738839908016	2
0	14177	1360.238839908016	1
0	14183	1360.574517328739	2
0	14184	1360.574517328739	3
0	14202	1362.738839908016	2
0	14232	1365.238839908016	1
0	14262	1367.738839908016	0
0	14271	1368.383429563745	1
0	14272	1368.383429563745	2
0	14287	1370.238839908016	1
0	14312	1372.738839908016	0
0	14321	1373.737421893077	1
0	14322	1373.737421893077	2
0	14337	1375.238839908016	1
0	14367	1377.738839908016	0
0	14376	1378.187831551815	1
0	14377	1378.187831551815	2
0	14392	1380.238839908016	1
0	14417	1382.738839908016	0
0	14426	1383.24440662916	1
0	14427	1383.24440662916	2
0	14442	1385.238839908016	1