version 3
run MMc-28-20221127-11:38:41-21264
attr configname MMc
attr datetime 20221127-11:38:41
attr datetimef 20221127-113841
attr experiment MMc
attr inifile omnetpp.ini
attr iterationvars "$mean=uniform(0.5s, 1.5s), $dev=0.5*(uniform(0.5s, 1.5s)), $time=2.0, $num=3, $0=53542, $1=75335, $2=34542"
attr iterationvarsd mean=uniform(0.5s,_1.5s)/dev=0.5#2a(uniform(0.5s,_1.5s))/time=2.0/num=3/53542/75335/34542
attr iterationvarsf mean=uniform(0.5s,_1.5s),dev=0.5#2a(uniform(0.5s,_1.5s)),time=2.0,num=3,53542,75335,34542-
attr measurement "$mean=uniform(0.5s, 1.5s), $dev=0.5*(uniform(0.5s, 1.5s)), $time=2.0, $num=3, $0=53542, $1=75335, $2=34542"
attr network MMc
attr processid 21264
attr repetition 0
attr replication #0
attr resultdir results
attr runnumber 28
attr seedset 28
itervar dev "0.5*(uniform(0.5s, 1.5s))"
itervar mean "uniform(0.5s, 1.5s)"
itervar num 3
itervar time 2.0
config description "MMc module"
config network MMc
config MMc.source.interArrivalTime "truncnormal(uniform(0.5s, 1.5s), 0.5*(uniform(0.5s, 1.5s)))"
config MMc.mmc.serviceTime 2.0s
config MMc.mmc.c 3
config MMc.mmc.capacity 10000
config record-eventlog false
config **.scalar-recording true
config **.vector-recording true
config repeat 4
config seed-1-mt 53542
config seed-2-mt 75335
config seed-3-mt 34542
config output-vector-file MMc-3-2.0-results/0.vec
config output-scalar-file MMc-3-2.0-results/0.sca

vector 0 MMc.mmc queueLength:vector ETV
attr interpolationmode none
attr recordingmode vector
attr title "queue length"
vector 1 MMc.mmc util:vector ETV
attr interpolationmode none
attr recordingmode vector
attr title resources
0	0	0	0
0	6	11.12708975808	1
0	8	11.485203094462	2
0	9	11.485203094462	3
0	10	12	2
0	11	12	1
0	14	13.12708975808	0
0	17	13.248806598664	1
0	18	13.248806598664	2
0	19	14	1
0	20	14	0
0	24	14.818595872968	1
0	25	14.818595872968	2
0	26	15.12708975808	1
0	28	16	0
0	34	16.608706008256	1
0	35	17.12708975808	0
0	41	18.419975754818	1
0	42	18.608706008256	0
0	48	19.395176310076	1
0	49	20.419975754818	0
0	52	20.56198938929	1
0	53	20.56198938929	2
0	54	20.608706008256	1
0	56	21.395176310076	0
0	59	21.502060821988	1
0	60	21.502060821988	2
0	61	22.419975754818	1
0	63	22.608706008256	0
0	66	22.941844615268	1
0	67	22.941844615268	2
0	68	23.395176310076	1
0	71	23.542642465984	2
0	72	23.542642465984	3
0	73	24.419975754818	2
0	75	24.608706008256	1
0	78	24.772605645106	2
0	79	24.772605645106	3
0	80	25.395176310076	2
0	83	25.955585127915	3
0	84	25.955585127915	4
0	85	26.419975754818	3
0	87	26.608706008256	2
0	90	26.892658384978	3
0	91	26.892658384978	4
0	92	27.395176310076	3
0	95	27.794171813659	4
0	96	27.794171813659	5
0	97	28.419975754818	4
0	99	28.608706008256	3
0	101	29.395176310076	2
0	104	29.59524798713	3
0	105	29.59524798713	4
0	106	30.419975754818	3
0	108	30.608706008256	2
0	111	30.826621062429	3
0	112	30.826621062429	4
0	113	31.395176310076	3
0	116	31.436333739547	4
0	117	31.436333739547	5
0	119	32.105432449322	6
0	120	32.105432449322	7
0	121	32.419975754818	6
0	123	32.608706008256	5
0	126	33.275618291531	6
0	127	33.275618291531	7
0	128	33.395176310076	6
0	131	34.10716499541	7
0	132	34.10716499541	8
0	134	34.278367033395	9
0	135	34.278367033395	10
0	136	34.419975754818	9
0	138	34.608706008256	8
0	141	35.345028638137	9
0	142	35.345028638137	10
0	143	35.395176310076	9
0	146	35.688336687996	10
0	147	35.688336687996	11
0	148	36.419975754818	10
0	150	36.608706008256	9
0	153	37.358678760221	10
0	154	37.358678760221	11
0	155	37.395176310076	10
0	157	38.419975754818	9
0	159	38.608706008256	8
0	162	38.816757548749	9
0	163	38.816757548749	10
0	164	39.395176310076	9
0	166	40.419975754818	8
0	169	40.424621495692	9
0	170	40.424621495692	10
0	171	40.608706008256	9
0	174	40.631256677309	10
0	175	40.631256677309	11
0	176	41.395176310076	10
0	178	42.419975754818	9
0	180	42.608706008256	8
0	183	42.87118179366	9
0	184	42.87118179366	10
0	185	43.395176310076	9
0	188	44.248194840776	10
0	189	44.248194840776	11
0	190	44.419975754818	10
0	192	44.608706008256	9
0	194	45.395176310076	8
0	197	45.519469835629	9
0	198	45.519469835629	10
0	199	46.419975754818	9
0	201	46.608706008256	8
0	204	47.321516871588	9
0	205	47.321516871588	10
0	206	47.395176310076	9
0	208	48.419975754818	8
0	210	48.608706008256	7
0	213	48.886411798625	8
0	214	48.886411798625	9
0	215	49.395176310076	8
0	218	50.347333609449	9
0	219	50.347333609449	10
0	220	50.419975754818	9
0	222	50.608706008256	8
0	225	50.923258317553	9
0	226	50.923258317553	10
0	228	51.261460865773	11
0	229	51.261460865773	12
0	230	51.395176310076	11
0	233	52.096776319342	12
0	234	52.096776319342	13
0	236	52.212862249891	14
0	237	52.212862249891	15
0	238	52.419975754818	14
0	240	52.608706008256	13
0	242	53.395176310076	12
0	245	53.444912529594	13
0	246	53.444912529594	14
0	248	53.716420512564	15
0	249	53.716420512564	16
0	250	54.419975754818	15
0	252	54.608706008256	14
0	255	54.973209696683	15
0	256	54.973209696683	16
0	257	55.395176310076	15
0	260	55.613856758074	16
0	261	55.613856758074	17
0	262	56.419975754818	16
0	264	56.608706008256	15
0	267	57.038443520923	16
0	268	57.038443520923	17
0	270	57.042212709569	18
0	271	57.042212709569	19
0	272	57.395176310076	18
0	275	57.521151455782	19
0	276	57.521151455782	20
0	277	58.419975754818	19
0	279	58.608706008256	18
0	282	58.939672390103	19
0	283	58.939672390103	20
0	285	59.331778004415	21
0	286	59.331778004415	22
0	287	59.395176310076	21
0	289	60.419975754818	20
0	292	60.602305283149	21
0	293	60.602305283149	22
0	294	60.608706008256	21
0	296	61.395176310076	20
0	299	62.033021196581	21
0	300	62.033021196581	22
0	302	62.353000899007	23
0	303	62.353000899007	24
0	304	62.419975754818	23
0	306	62.608706008256	22
0	308	63.395176310076	21
0	311	63.80942483554	22
0	312	63.80942483554	23
0	313	64.419975754818	22
0	315	64.608706008256	21
0	318	65.171684325002	22
0	319	65.171684325002	23
0	320	65.395176310076	22
0	322	66.419975754818	21
0	324	66.608706008256	20
0	327	66.765422674751	21
0	328	66.765422674751	22
0	329	67.395176310076	21
0	332	67.841544707071	22
0	333	67.841544707071	23
0	335	68.399577235973	24
0	336	68.399577235973	25
0	337	68.419975754818	24
0	339	68.608706008256	23
0	341	69.395176310076	22
0	344	69.893060258119	23
0	345	69.893060258119	24
0	346	70.419975754818	23
0	348	70.608706008256	22
0	351	71.282718046672	23
0	352	71.282718046672	24
0	353	71.395176310076	23
0	356	71.883983524892	24
0	357	71.883983524892	25
0	358	72.419975754818	24
0	360	72.608706008256	23
0	363	72.865864425887	24
0	364	72.865864425887	25
0	365	73.395176310076	24
0	368	73.852227165269	25
0	369	73.852227165269	26
0	371	74.264107108684	27
0	372	74.264107108684	28
0	373	74.419975754818	27
0	375	74.608706008256	26
0	378	74.968128867872	27
0	379	74.968128867872	28
0	380	75.395176310076	27
0	383	76.230190447685	28
0	384	76.230190447685	29
0	385	76.419975754818	28
0	387	76.608706008256	27
0	389	77.395176310076	26
0	392	77.676334464541	27
0	393	77.676334464541	28
0	394	78.419975754818	27
0	396	78.608706008256	26
0	399	79.21487537076	27
0	400	79.21487537076	28
0	401	79.395176310076	27
0	404	80.29986681207	28
0	405	80.29986681207	29
0	406	80.419975754818	28
0	408	80.608706008256	27
0	411	80.973502130451	28
0	412	80.973502130451	29
0	413	81.395176310076	28
0	416	81.839625540775	29
0	417	81.839625540775	30
0	418	82.419975754818	29
0	420	82.608706008256	28
0	423	82.80782021477	29
0	424	82.80782021477	30
0	425	83.395176310076	29
0	428	83.679490413853	30
0	429	83.679490413853	31
0	431	84.333865046147	32
0	432	84.333865046147	33
0	433	84.419975754818	32
0	435	84.608706008256	31
0	438	84.780855571235	32
0	439	84.780855571235	33
0	440	85.395176310076	32
0	443	86.181361424089	33
0	444	86.181361424089	34
0	445	86.419975754818	33
0	447	86.608706008256	32
0	449	87.395176310076	31
0	451	88.419975754818	30
0	454	88.601616997943	31
0	455	88.601616997943	32
0	456	88.608706008256	31
0	458	89.395176310076	30
0	461	89.759946211202	31
0	462	89.759946211202	32
0	464	90.348971018523	33
0	465	90.348971018523	34
0	466	90.419975754818	33
0	468	90.608706008256	32
0	470	91.395176310076	31
0	473	91.653653735367	32
0	474	91.653653735367	33
0	475	92.419975754818	32
0	477	92.608706008256	31
0	479	93.395176310076	30
0	482	93.955193351481	31
0	483	93.955193351481	32
0	484	94.419975754818	31
0	486	94.608706008256	30
0	489	94.949808161366	31
0	490	94.949808161366	32
0	491	95.395176310076	31
0	494	96.388862180073	32
0	495	96.388862180073	33
0	496	96.419975754818	32
0	498	96.608706008256	31
0	501	96.809385987511	32
0	502	96.809385987511	33
0	503	97.395176310076	32
0	506	97.629817655323	33
0	507	97.629817655323	34
0	508	98.419975754818	33
0	511	98.500691919136	34
0	512	98.500691919136	35
0	513	98.608706008256	34
0	515	99.395176310076	33
0	518	100.139014686269	34
0	519	100.139014686269	35
0	520	100.419975754818	34
0	522	100.608706008256	33
0	524	101.395176310076	32
0	527	101.551166183702	33
0	528	101.551166183702	34
0	530	102.370886017425	35
0	531	102.370886017425	36
0	532	102.419975754818	35
0	534	102.608706008256	34
0	537	102.919160146365	35
0	538	102.919160146365	36
0	539	103.395176310076	35
0	542	104.010433013485	36
0	543	104.010433013485	37
0	544	104.419975754818	36
0	546	104.608706008256	35
0	549	104.822422456815	36
0	550	104.822422456815	37
0	551	105.395176310076	36
0	553	106.419975754818	35
0	555	106.608706008256	34
0	558	106.753901921213	35
0	559	106.753901921213	36
0	561	106.879761439065	37
0	562	106.879761439065	38
0	564	107.360256492287	39
0	565	107.360256492287	40
0	566	107.395176310076	39
0	568	108.419975754818	38
0	570	108.608706008256	37
0	573	108.630739428148	38
0	574	108.630739428148	39
0	575	109.395176310076	38
0	578	109.452821241002	39
0	579	109.452821241002	40
0	581	110.20726411655	41
0	582	110.20726411655	42
0	583	110.419975754818	41
0	585	110.608706008256	40
0	588	110.857471457406	41
0	589	110.857471457406	42
0	590	111.395176310076	41
0	592	112.419975754818	40
0	595	112.516339185432	41
0	596	112.516339185432	42
0	597	112.608706008256	41
0	599	113.395176310076	40
0	602	114.129229277139	41
0	603	114.129229277139	42
0	604	114.419975754818	41
0	606	114.608706008256	40
0	608	115.395176310076	39
0	611	115.452213216149	40
0	612	115.452213216149	41
0	614	115.673141729901	42
0	615	115.673141729901	43
0	617	115.729933603811	44
0	618	115.729933603811	45
0	619	116.419975754818	44
0	621	116.608706008256	43
0	624	116.637765858739	44
0	625	116.637765858739	45
0	626	117.395176310076	44
0	629	117.762163583078	45
0	630	117.762163583078	46
0	631	118.419975754818	45
0	633	118.608706008256	44
0	635	119.395176310076	43
0	638	120.072917631712	44
0	639	120.072917631712	45
0	640	120.419975754818	44
0	642	120.608706008256	43
0	644	121.395176310076	42
0	647	121.712580560906	43
0	648	121.712580560906	44
0	649	122.419975754818	43
0	651	122.608706008256	42
0	654	122.650746082415	43
0	655	122.650746082415	44
0	656	123.395176310076	43
0	659	123.529681525437	44
0	660	123.529681525437	45
0	662	123.690072411313	46
0	663	123.690072411313	47
0	664	124.419975754818	46
0	666	124.608706008256	45
0	669	124.893927693854	46
0	670	124.893927693854	47
0	671	125.395176310076	46
0	673	126.419975754818	45
0	675	126.608706008256	44
0	678	126.828435184014	45
0	679	126.828435184014	46
0	680	127.395176310076	45
0	683	128.082328416676	46
0	684	128.082328416676	47
0	685	128.419975754818	46
0	687	128.608706008256	45
0	690	128.726143482511	46
0	691	128.726143482511	47
0	693	128.918594554891	48
0	694	128.918594554891	49
0	696	128.966003299617	50
0	697	128.966003299617	51
0	698	129.395176310076	50
0	701	129.830004783302	51
0	702	129.830004783302	52
0	704	130.383655483427	53
0	705	130.383655483427	54
0	706	130.419975754818	53
0	708	130.608706008256	52
0	710	131.395176310076	51
0	713	132.383611173309	52
0	714	132.383611173309	53
0	715	132.419975754818	52
0	717	132.608706008256	51
0	720	133.2413126899	52
0	721	133.2413126899	53
0	722	133.395176310076	52
0	725	134.017009250202	53
0	726	134.017009250202	54
0	727	134.419975754818	53
0	729	134.608706008256	52
0	732	134.979927943887	53
0	733	134.979927943887	54
0	734	135.395176310076	53
0	737	136.110457332498	54
0	738	136.110457332498	55
0	739	136.419975754818	54
0	741	136.608706008256	53
0	744	136.82707421209	54
0	745	136.82707421209	55
0	747	137.243617039433	56
0	748	137.243617039433	57
0	749	137.395176310076	56
0	751	138.419975754818	55
0	753	138.608706008256	54
0	756	138.705952458108	55
0	757	138.705952458108	56
0	758	139.395176310076	55
0	761	139.545503007719	56
0	762	139.545503007719	57
0	764	140.321353580663	58
0	765	140.321353580663	59
0	766	140.419975754818	58
0	768	140.608706008256	57
0	770	141.395176310076	56
0	773	142.166392214711	57
0	774	142.166392214711	58
0	775	142.419975754818	57
0	777	142.608706008256	56
0	780	142.633317400516	57
0	781	142.633317400516	58
0	782	143.395176310076	57
0	785	143.725161201054	58
0	786	143.725161201054	59
0	788	144.087332315341	60
0	789	144.087332315341	61
0	790	144.419975754818	60
0	792	144.608706008256	59
0	795	144.730309433061	60
0	796	144.730309433061	61
0	797	145.395176310076	60
0	800	146.029265864968	61
0	801	146.029265864968	62
0	802	146.419975754818	61
0	804	146.608706008256	60
0	807	147.377618648292	61
0	808	147.377618648292	62
0	809	147.395176310076	61
0	811	148.419975754818	60
0	814	148.486719205035	61
0	815	148.486719205035	62
0	817	148.495006855286	63
0	818	148.495006855286	64
0	819	148.608706008256	63
0	821	149.395176310076	62
0	824	149.912058710829	63
0	825	149.912058710829	64
0	827	150.353196801018	65
0	828	150.353196801018	66
0	829	150.419975754818	65
0	831	150.608706008256	64
0	833	151.395176310076	63
0	836	151.898149653494	64
0	837	151.898149653494	65
0	838	152.419975754818	64
0	840	152.608706008256	63
0	842	153.395176310076	62
0	845	154.397196727489	63
0	846	154.397196727489	64
0	847	154.419975754818	63
0	849	154.608706008256	62
0	852	154.888112789952	63
0	853	154.888112789952	64
0	854	155.395176310076	63
0	857	156.320689969812	64
0	858	156.320689969812	65
0	859	156.419975754818	64
0	861	156.608706008256	63
0	863	157.395176310076	62
0	866	157.422645777994	63
0	867	157.422645777994	64
0	868	158.419975754818	63
0	870	158.608706008256	62
0	873	158.679676650966	63
0	874	158.679676650966	64
0	875	159.395176310076	63
0	878	159.448575062179	64
0	879	159.448575062179	65
0	880	160.419975754818	64
0	882	160.608706008256	63
0	884	161.395176310076	62
0	887	161.477603851321	63
0	888	161.477603851321	64
0	889	162.419975754818	63
0	892	162.471096571066	64
0	893	162.471096571066	65
0	894	162.608706008256	64
0	896	163.395176310076	63
0	899	163.613064116851	64
0	900	163.613064116851	65
0	901	164.419975754818	64
0	903	164.608706008256	63
0	906	164.817925915888	64
0	907	164.817925915888	65
0	909	164.818902911342	66
0	910	164.818902911342	67
0	911	165.395176310076	66
0	914	165.54414661244	67
0	915	165.54414661244	68
0	916	166.419975754818	67
0	918	166.608706008256	66
0	921	167.260752873828	67
0	922	167.260752873828	68
0	923	167.395176310076	67
0	925	168.419975754818	66
0	927	168.608706008256	65
0	930	168.946514048191	66
0	931	168.946514048191	67
0	932	169.395176310076	66
0	935	169.719874740429	67
0	936	169.719874740429	68
0	937	170.419975754818	67
0	940	170.480727036894	68
0	941	170.480727036894	69
0	942	170.608706008256	68
0	944	171.395176310076	67
0	947	171.66451139319	68
0	948	171.66451139319	69
0	949	172.419975754818	68
0	951	172.608706008256	67
0	954	172.702414259188	68
0	955	172.702414259188	69
0	956	173.395176310076	68
0	958	174.419975754818	67
0	960	174.608706008256	66
0	963	174.8360144177	67
0	964	174.8360144177	68
0	965	175.395176310076	67
0	968	175.646384283442	68
0	969	175.646384283442	69
0	971	176.36407006089	70
0	972	176.36407006089	71
0	973	176.419975754818	70
0	975	176.608706008256	69
0	977	177.395176310076	68
0	980	177.680222182305	69
0	981	177.680222182305	70
0	982	178.419975754818	69
0	984	178.608706008256	68
0	987	178.67180260753	69
0	988	178.67180260753	70
0	990	179.069345106788	71
0	991	179.069345106788	72
0	992	179.395176310076	71
0	995	179.809732439082	72
0	996	179.809732439082	73
0	998	180.205146058699	74
0	999	180.205146058699	75
0	1000	180.419975754818	74
0	1003	180.599720769189	75
0	1004	180.599720769189	76
0	1005	180.608706008256	75
0	1008	181.394564052347	76
0	1009	181.394564052347	77
0	1010	181.395176310076	76
0	1012	182.419975754818	75
0	1014	182.608706008256	74
0	1017	183.181464512728	75
0	1018	183.181464512728	76
0	1019	183.395176310076	75
0	1021	184.419975754818	74
0	1023	184.608706008256	73
0	1026	185.178708963082	74
0	1027	185.178708963082	75
0	1028	185.395176310076	74
0	1031	186.085135668513	75
0	1032	186.085135668513	76
0	1033	186.419975754818	75
0	1035	186.608706008256	74
0	1038	186.968470996715	75
0	1039	186.968470996715	76
0	1040	187.395176310076	75
0	1043	187.499328529436	76
0	1044	187.499328529436	77
0	1045	188.419975754818	76
0	1047	188.608706008256	75
0	1049	189.395176310076	74
0	1052	189.67830091612	75
0	1053	189.67830091612	76
0	1055	189.709226713083	77
0	1056	189.709226713083	78
0	1057	190.419975754818	77
0	1059	190.608706008256	76
0	1062	190.89730764046	77
0	1063	190.89730764046	78
0	1064	191.395176310076	77
0	1066	192.419975754818	76
0	1069	192.587314238558	77
0	1070	192.587314238558	78
0	1071	192.608706008256	77
0	1073	193.395176310076	76
0	1076	194.340887030143	77
0	1077	194.340887030143	78
0	1078	194.419975754818	77
0	1080	194.608706008256	76
0	1082	195.395176310076	75
0	1085	196.245061443872	76
0	1086	196.245061443872	77
0	1087	196.419975754818	76
0	1089	196.608706008256	75
0	1091	197.395176310076	74
0	1094	197.458116651387	75
0	1095	197.458116651387	76
0	1097	197.724801911249	77
0	1098	197.724801911249	78
0	1099	198.419975754818	77
0	1101	198.608706008256	76
0	1104	198.963606075587	77
0	1105	198.963606075587	78
0	1107	199.116916751832	79
0	1108	199.116916751832	80
0	1109	199.395176310076	79
0	1112	200.34292054186	80
0	1113	200.34292054186	81
0	1114	200.419975754818	80
0	1116	200.608706008256	79
0	1119	201.099485678477	80
0	1120	201.099485678477	81
0	1121	201.395176310076	80
0	1124	201.976230110517	81
0	1125	201.976230110517	82
0	1126	202.419975754818	81
0	1128	202.608706008256	80
0	1131	203.285155739313	81
0	1132	203.285155739313	82
0	1133	203.395176310076	81
0	1136	204.324159742394	82
0	1137	204.324159742394	83
0	1138	204.419975754818	82
0	1140	204.608706008256	81
0	1142	205.395176310076	80
0	1145	205.72140277888	81
0	1146	205.72140277888	82
0	1147	206.419975754818	81
0	1149	206.608706008256	80
0	1152	206.790699435275	81
0	1153	206.790699435275	82
0	1154	207.395176310076	81
0	1156	208.419975754818	80
0	1158	208.608706008256	79
0	1161	209.133935532564	80
0	1162	209.133935532564	81
0	1163	209.395176310076	80
0	1165	210.419975754818	79
0	1167	210.608706008256	78
0	1170	210.732805417247	79
0	1171	210.732805417247	80
0	1172	211.395176310076	79
0	1175	211.583457325284	80
0	1176	211.583457325284	81
0	1177	212.419975754818	80
0	1179	212.608706008256	79
0	1182	213.294467354273	80
0	1183	213.294467354273	81
0	1185	213.359378450138	82
0	1186	213.359378450138	83
0	1187	213.395176310076	82
0	1189	214.419975754818	81
0	1191	214.608706008256	80
0	1194	214.757266582624	81
0	1195	214.757266582624	82
0	1197	214.912791179209	83
0	1198	214.912791179209	84
0	1199	215.395176310076	83
0	1202	216.389099317251	84
0	1203	216.389099317251	85
0	1204	216.419975754818	84
0	1206	216.608706008256	83
0	1208	217.395176310076	82
0	1211	217.712492312457	83
0	1212	217.712492312457	84
0	1213	218.419975754818	83
0	1215	218.608706008256	82
0	1218	218.970124527974	83
0	1219	218.970124527974	84
0	1220	219.395176310076	83
0	1222	220.419975754818	82
0	1224	220.608706008256	81
0	1227	220.823748037153	82
0	1228	220.823748037153	83
0	1229	221.395176310076	82
0	1231	222.419975754818	81
0	1234	222.425351639664	82
0	1235	222.425351639664	83
0	1236	222.608706008256	82
0	1239	223.248145834678	83
0	1240	223.248145834678	84
0	1241	223.395176310076	83
0	1244	223.769691687604	84
0	1245	223.769691687604	85
0	1246	224.419975754818	84
0	1248	224.608706008256	83
0	1251	224.729509081535	84
0	1252	224.729509081535	85
0	1253	225.395176310076	84
0	1256	226.145210469375	85
0	1257	226.145210469375	86
0	1258	226.419975754818	85
0	1260	226.608706008256	84
0	1262	227.395176310076	83
0	1265	227.452050640119	84
0	1266	227.452050640119	85
0	1268	227.742749616002	86
0	1269	227.742749616002	87
0	1271	228.148754012632	88
0	1272	228.148754012632	89
0	1273	228.419975754818	88
0	1275	228.608706008256	87
0	1278	228.616270436456	88
0	1279	228.616270436456	89
0	1280	229.395176310076	88
0	1283	230.241100978858	89
0	1284	230.241100978858	90
0	1285	230.419975754818	89
0	1287	230.608706008256	88
0	1289	231.395176310076	87
0	1292	231.494920652813	88
0	1293	231.494920652813	89
0	1294	232.419975754818	88
0	1297	232.581509557301	89
0	1298	232.581509557301	90
0	1299	232.608706008256	89
0	1302	232.955965669445	90
0	1303	232.955965669445	91
0	1304	233.395176310076	90
0	1307	234.125469573967	91
0	1308	234.125469573967	92
0	1309	234.419975754818	91
0	1311	234.608706008256	90
0	1313	235.395176310076	89
0	1316	235.828763810826	90
0	1317	235.828763810826	91
0	1318	236.419975754818	90
0	1320	236.608706008256	89
0	1323	236.905046780183	90
0	1324	236.905046780183	91
0	1325	237.395176310076	90
0	1328	237.956130315998	91
0	1329	237.956130315998	92
0	1330	238.419975754818	91
0	1332	238.608706008256	90
0	1334	239.395176310076	89
0	1337	239.730457606476	90
0	1338	239.730457606476	91
0	1339	240.419975754818	90
0	1341	240.608706008256	89
0	1344	240.763893119796	90
0	1345	240.763893119796	91
0	1346	241.395176310076	90
0	1349	241.581483176703	91
0	1350	241.581483176703	92
0	1351	242.419975754818	91
0	1354	242.459281159594	92
0	1355	242.459281159594	93
0	1356	242.608706008256	92
0	1358	243.395176310076	91
0	1360	244.419975754818	90
0	1362	244.608706008256	89
0	1365	244.637155094336	90
0	1366	244.637155094336	91
0	1367	245.395176310076	90
0	1370	245.434085970669	91
0	1371	245.434085970669	92
0	1373	245.963424202168	93
0	1374	245.963424202168	94
0	1375	246.419975754818	93
0	1377	246.608706008256	92
0	1380	247.277253044729	93
0	1381	247.277253044729	94
0	1382	247.395176310076	93
0	1384	248.419975754818	92
0	1387	248.45526389661	93
0	1388	248.45526389661	94
0	1389	248.608706008256	93
0	1391	249.395176310076	92
0	1394	250.236610465783	93
0	1395	250.236610465783	94
0	1396	250.419975754818	93
0	1398	250.608706008256	92
0	1400	251.395176310076	91
0	1403	251.489771270055	92
0	1404	251.489771270055	93
0	1405	252.419975754818	92
0	1408	252.42998816385	93
0	1409	252.42998816385	94
0	1410	252.608706008256	93
0	1412	253.395176310076	92
0	1415	254.26533193356	93
0	1416	254.26533193356	94
0	1417	254.419975754818	93
0	1419	254.608706008256	92
0	1422	254.77275444045	93
0	1423	254.77275444045	94
0	1425	255.177882149812	95
0	1426	255.177882149812	96
0	1427	255.395176310076	95
0	1429	256.419975754818	94
0	1432	256.576022447587	95
0	1433	256.576022447587	96
0	1435	256.596429018874	97
0	1436	256.596429018874	98
0	1437	256.608706008256	97
0	1439	257.395176310076	96
0	1442	257.884495234746	97
0	1443	257.884495234746	98
0	1444	258.419975754818	97
0	1447	258.478806751479	98
0	1448	258.478806751479	99
0	1449	258.608706008256	98
0	1451	259.395176310076	97
0	1454	259.756663892414	98
0	1455	259.756663892414	99
0	1457	260.165060077442	100
0	1458	260.165060077442	101
0	1459	260.419975754818	100
0	1461	260.608706008256	99
0	1464	261.076081783346	100
0	1465	261.076081783346	101
0	1466	261.395176310076	100
0	1469	262.392531993437	101
0	1470	262.392531993437	102
0	1471	262.419975754818	101
0	1473	262.608706008256	100
0	1475	263.395176310076	99
0	1478	264.244045084885	100
0	1479	264.244045084885	101
0	1480	264.419975754818	100
0	1482	264.608706008256	99
0	1484	265.395176310076	98
0	1487	265.539514174711	99
0	1488	265.539514174711	100
0	1489	266.419975754818	99
0	1491	266.608706008256	98
0	1493	267.395176310076	97
0	1496	267.583272552559	98
0	1497	267.583272552559	99
0	1499	268.345144847685	100
0	1500	268.345144847685	101
0	1501	268.419975754818	100
0	1503	268.608706008256	99
0	1505	269.395176310076	98
0	1508	269.482167647174	99
0	1509	269.482167647174	100
0	1510	270.419975754818	99
0	1512	270.608706008256	98
0	1515	270.826605501694	99
0	1516	270.826605501694	100
0	1517	271.395176310076	99
0	1520	271.396575750066	100
0	1521	271.396575750066	101
0	1522	272.419975754818	100
0	1524	272.608706008256	99
0	1527	272.735421600696	100
0	1528	272.735421600696	101
0	1529	273.395176310076	100
0	1532	274.038193372558	101
0	1533	274.038193372558	102
0	1534	274.419975754818	101
0	1536	274.608706008256	100
0	1539	275.172808218842	101
0	1540	275.172808218842	102
0	1541	275.395176310076	101
0	1543	276.419975754818	100
0	1546	276.539493294721	101
0	1547	276.539493294721	102
0	1548	276.608706008256	101
0	1551	277.26265798027	102
0	1552	277.26265798027	103
0	1553	277.395176310076	102
0	1555	278.419975754818	101
0	1558	278.54186771334	102
0	1559	278.54186771334	103
0	1560	278.608706008256	102
0	1563	279.026078352867	103
0	1564	279.026078352867	104
0	1565	279.395176310076	103
0	1567	280.419975754818	102
0	1570	280.480657623153	103
0	1571	280.480657623153	104
0	1572	280.608706008256	103
0	1575	281.215843404812	104
0	1576	281.215843404812	105
0	1577	281.395176310076	104
0	1579	282.419975754818	103
0	1581	282.608706008256	102
0	1584	282.634356130454	103
0	1585	282.634356130454	104
0	1586	283.395176310076	103
0	1589	283.717723479431	104
0	1590	283.717723479431	105
0	1591	284.419975754818	104
0	1593	284.608706008256	103
0	1596	284.748622132692	104
0	1597	284.748622132692	105
0	1598	285.395176310076	104
0	1601	285.721425261494	105
0	1602	285.721425261494	106
0	1603	286.419975754818	105
0	1605	286.608706008256	104
0	1607	287.395176310076	103
0	1610	287.428920001805	104
0	1611	287.428920001805	105
0	1612	288.419975754818	104
0	1615	288.485090998859	105
0	1616	288.485090998859	106
0	1617	288.608706008256	105
0	1620	289.211901716594	106
0	1621	289.211901716594	107
0	1622	289.395176310076	106
0	1624	290.419975754818	105
0	1627	290.490641135239	106
0	1628	290.490641135239	107
0	1629	290.608706008256	106
0	1632	291.164572998897	107
0	1633	291.164572998897	108
0	1634	291.395176310076	107
0	1637	292.14888508117	108
0	1638	292.14888508117	109
0	1639	292.419975754818	108
0	1641	292.608706008256	107
0	1643	293.395176310076	106
0	1645	294.419975754818	105
0	1647	294.608706008256	104
0	1650	294.626532069304	105
0	1651	294.626532069304	106
0	1652	295.395176310076	105
0	1655	295.637647275616	106
0	1656	295.637647275616	107
0	1657	296.419975754818	106
0	1659	296.608706008256	105
0	1662	296.764809848846	106
0	1663	296.764809848846	107
0	1664	297.395176310076	106
0	1667	297.939665066586	107
0	1668	297.939665066586	108
0	1669	298.419975754818	107
0	1671	298.608706008256	106
0	1673	299.395176310076	105
0	1676	299.920022078989	106
0	1677	299.920022078989	107
0	1679	300.332599575918	108
0	1680	300.332599575918	109
0	1681	300.419975754818	108
0	1684	300.593960124035	109
0	1685	300.593960124035	110
0	1686	300.608706008256	109
0	1688	301.395176310076	108
0	1691	301.991311381528	109
0	1692	301.991311381528	110
0	1693	302.419975754818	109
0	1695	302.608706008256	108
0	1698	303.032108438067	109
0	1699	303.032108438067	110
0	1700	303.395176310076	109
0	1703	304.235938910929	110
0	1704	304.235938910929	111
0	1705	304.419975754818	110
0	1707	304.608706008256	109
0	1709	305.395176310076	108
0	1712	306.115825275719	109
0	1713	306.115825275719	110
0	1714	306.419975754818	109
0	1717	306.530871506205	110
0	1718	306.530871506205	111
0	1719	306.608706008256	110
0	1721	307.395176310076	109
0	1724	307.504106864219	110
0	1725	307.504106864219	111
0	1727	308.061255372934	112
0	1728	308.061255372934	113
0	1729	308.419975754818	112
0	1731	308.608706008256	111
0	1734	309.169907988389	112
0	1735	309.169907988389	113
0	1737	309.235155686958	114
0	1738	309.235155686958	115
0	1739	309.395176310076	114
0	1741	310.419975754818	113
0	1743	310.608706008256	112
0	1746	310.671422895139	113
0	1747	310.671422895139	114
0	1748	311.395176310076	113
0	1751	311.716640948685	114
0	1752	311.716640948685	115
0	1753	312.419975754818	114
0	1755	312.608706008256	113
0	1758	312.748062875478	114
0	1759	312.748062875478	115
0	1760	313.395176310076	114
0	1763	313.810157733716	115
0	1764	313.810157733716	116
0	1765	314.419975754818	115
0	1767	314.608706008256	114
0	1770	314.885851674337	115
0	1771	314.885851674337	116
0	1772	315.395176310076	115
0	1775	315.929414142729	116
0	1776	315.929414142729	117
0	1777	316.419975754818	116
0	1779	316.608706008256	115
0	1781	317.395176310076	114
0	1784	317.430210314955	115
0	1785	317.430210314955	116
0	1787	317.876155846647	117
0	1788	317.876155846647	118
0	1790	318.219065124184	119
0	1791	318.219065124184	120
0	1792	318.419975754818	119
0	1794	318.608706008256	118
0	1796	319.395176310076	117
0	1799	319.62604899046	118
0	1800	319.62604899046	119
0	1801	320.419975754818	118
0	1803	320.608706008256	117
0	1806	321.043206251171	118
0	1807	321.043206251171	119
0	1808	321.395176310076	118
0	1811	321.480173996781	119
0	1812	321.480173996781	120
0	1813	322.419975754818	119
0	1815	322.608706008256	118
0	1818	322.913412080788	119
0	1819	322.913412080788	120
0	1820	323.395176310076	119
0	1822	324.419975754818	118
0	1824	324.608706008256	117
0	1827	324.990382181881	118
0	1828	324.990382181881	119
0	1829	325.395176310076	118
0	1831	326.419975754818	117
0	1834	326.564137471148	118
0	1835	326.564137471148	119
0	1836	326.608706008256	118
0	1838	327.395176310076	117
0	1841	327.44645454469	118
0	1842	327.44645454469	119
0	1844	327.509336543651	120
0	1845	327.509336543651	121
0	1846	328.419975754818	120
0	1848	328.608706008256	119
0	1851	328.726997760731	120
0	1852	328.726997760731	121
0	1853	329.395176310076	120
0	1856	329.764278487938	121
0	1857	329.764278487938	122
0	1858	330.419975754818	121
0	1860	330.608706008256	120
0	1862	331.395176310076	119
0	1865	332.115883064083	120
0	1866	332.115883064083	121
0	1867	332.419975754818	120
0	1869	332.608706008256	119
0	1872	333.253480513344	120
0	1873	333.253480513344	121
0	1874	333.395176310076	120
0	1877	333.915230642989	121
0	1878	333.915230642989	122
0	1880	334.322901733788	123
0	1881	334.322901733788	124