version 3
run MMc-29-20221127-11:38:41-21264
attr configname MMc
attr datetime 20221127-11:38:41
attr datetimef 20221127-113841
attr experiment MMc
attr inifile omnetpp.ini
attr iterationvars "$mean=uniform(0.5s, 1.5s), $dev=0.5*(uniform(0.5s, 1.5s)), $time=2.0, $num=3, $0=45732, $1=35463, $2=67563"
attr iterationvarsd mean=uniform(0.5s,_1.5s)/dev=0.5#2a(uniform(0.5s,_1.5s))/time=2.0/num=3/45732/35463/67563
attr iterationvarsf mean=uniform(0.5s,_1.5s),dev=0.5#2a(uniform(0.5s,_1.5s)),time=2.0,num=3,45732,35463,67563-
attr measurement "$mean=uniform(0.5s, 1.5s), $dev=0.5*(uniform(0.5s, 1.5s)), $time=2.0, $num=3, $0=45732, $1=35463, $2=67563"
attr network MMc
attr processid 21264
attr repetition 1
attr replication #1
attr resultdir results
attr runnumber 29
attr seedset 29
itervar dev "0.5*(uniform(0.5s, 1.5s))"
itervar mean "uniform(0.5s, 1.5s)"
itervar num 3
itervar time 2.0
config description "MMc module"
config network MMc
config MMc.source.interArrivalTime "truncnormal(uniform(0.5s, 1.5s), 0.5*(uniform(0.5s, 1.5s)))"
config MMc.mmc.serviceTime 2.0s
config MMc.mmc.c 3
config MMc.mmc.capacity 10000
config record-eventlog false
config **.scalar-recording true
config **.vector-recording true
config repeat 4
config seed-1-mt 45732
config seed-2-mt 35463
config seed-3-mt 67563
config output-vector-file MMc-3-2.0-results/1.vec
config output-scalar-file MMc-3-2.0-results/1.sca

vector 0 MMc.mmc queueLength:vector ETV
attr interpolationmode none
attr recordingmode vector
attr title "queue length"
vector 1 MMc.mmc util:vector ETV
attr interpolationmode none
attr recordingmode vector
attr title resources
0	0	0	0
0	6	11.060295318284	1
0	8	11.230188468394	2
0	9	11.230188468394	3
0	10	12	2
0	11	12	1
0	15	12.681316499233	2
0	16	12.681316499233	3
0	17	13.060295318284	2
0	20	13.489106419247	3
0	21	13.489106419247	4
0	22	14	3
0	23	14	2
0	26	15.060295318284	1
0	29	15.062663654991	2
0	30	15.062663654991	3
0	31	16	2
0	32	16	1
0	36	16.212677176642	2
0	37	16.212677176642	3
0	38	17.060295318284	2
0	41	17.527275484381	3
0	42	17.527275484381	4
0	43	18	3
0	44	18	2
0	48	18.47882495003	3
0	49	18.47882495003	4
0	50	19.060295318284	3
0	53	19.1004762579	4
0	54	19.1004762579	5
0	55	20	4
0	56	20	3
0	60	20.409388682219	4
0	61	20.409388682219	5
0	62	21.060295318284	4
0	65	21.957453346466	5
0	66	21.957453346466	6
0	67	22	5
0	68	22	4
0	71	23.060295318284	3
0	74	23.32118472919	4
0	75	23.32118472919	5
0	77	23.977488043022	6
0	78	23.977488043022	7
0	79	24	6
0	80	24	5
0	84	25.007238867097	6
0	85	25.007238867097	7
0	86	25.060295318284	6
0	89	25.98120336452	7
0	90	25.98120336452	8
0	91	26	7
0	92	26	6
0	96	26.692925667529	7
0	97	26.692925667529	8
0	98	27.060295318284	7
0	100	28	6
0	101	28	5
0	105	28.098397929917	6
0	106	28.098397929917	7
0	107	29.060295318284	6
0	110	29.479494908158	7
0	111	29.479494908158	8
0	112	30	7
0	113	30	6
0	116	31.060295318284	5
0	119	31.362318230142	6
0	120	31.362318230142	7
0	121	32	6
0	122	32	5
0	126	32.774943626145	6
0	127	32.774943626145	7
0	128	33.060295318284	6
0	130	34	5
0	131	34	4
0	135	34.004219350305	5
0	136	34.004219350305	6
0	137	35.060295318284	5
0	140	35.694718351308	6
0	141	35.694718351308	7
0	142	36	6
0	143	36	5
0	146	37.060295318284	4
0	149	37.813086985098	5
0	150	37.813086985098	6
0	151	38	5
0	152	38	4
0	155	39.060295318284	3
0	158	39.615704084658	4
0	159	39.615704084658	5
0	160	40	4
0	161	40	3
0	164	41.060295318284	2
0	167	41.834405797871	3
0	168	41.834405797871	4
0	169	42	3
0	170	42	2
0	174	42.732984016571	3
0	175	42.732984016571	4
0	176	43.060295318284	3
0	178	44	2
0	179	44	1
0	183	44.837523378685	2
0	184	44.837523378685	3
0	185	45.060295318284	2
0	188	45.801457794796	3
0	189	45.801457794796	4
0	190	46	3
0	191	46	2
0	194	47.060295318284	1
0	197	47.238835320205	2
0	198	47.238835320205	3
0	199	48	2
0	200	48	1
0	204	48.685046718715	2
0	205	48.685046718715	3
0	206	49.060295318284	2
0	208	50	1
0	209	50	0
0	213	50.38220122661	1
0	214	50.38220122661	2
0	215	51.060295318284	1
0	218	51.835906322278	2
0	219	51.835906322278	3
0	220	52	2
0	221	52	1
0	225	52.140586932914	2
0	226	52.140586932914	3
0	228	52.581387467973	4
0	229	52.581387467973	5
0	231	52.926432749253	6
0	232	52.926432749253	7
0	233	53.060295318284	6
0	236	53.379162000779	7
0	237	53.379162000779	8
0	238	54	7
0	239	54	6
0	243	54.593520238453	7
0	244	54.593520238453	8
0	245	55.060295318284	7
0	248	55.408581504539	8
0	249	55.408581504539	9
0	250	56	8
0	251	56	7
0	255	56.750313161115	8
0	256	56.750313161115	9
0	257	57.060295318284	8
0	260	57.833470173733	9
0	261	57.833470173733	10
0	262	58	9
0	263	58	8
0	266	59.060295318284	7
0	268	60	6
0	269	60	5
0	273	60.020510347642	6
0	274	60.020510347642	7
0	275	61.060295318284	6
0	278	61.626761505901	7
0	279	61.626761505901	8
0	280	62	7
0	281	62	6
0	285	62.405287034441	7
0	286	62.405287034441	8
0	287	63.060295318284	7
0	290	63.546800741671	8
0	291	63.546800741671	9
0	293	63.628465981442	10
0	294	63.628465981442	11
0	295	64	10
0	296	64	9
0	299	65.060295318284	8
0	302	65.777376175349	9
0	303	65.777376175349	10
0	305	65.976067440192	11
0	306	65.976067440192	12
0	307	66	11
0	308	66	10
0	312	66.973549003296	11
0	313	66.973549003296	12
0	314	67.060295318284	11
0	317	67.874047870502	12
0	318	67.874047870502	13
0	319	68	12
0	320	68	11
0	323	69.060295318284	10
0	325	70	9
0	326	70	8
0	330	70.054318004081	9
0	331	70.054318004081	10
0	333	70.524985438442	11
0	334	70.524985438442	12
0	335	71.060295318284	11
0	337	72	10
0	338	72	9
0	342	72.378941189484	10
0	343	72.378941189484	11
0	344	73.060295318284	10
0	347	73.232163066973	11
0	348	73.232163066973	12
0	349	74	11
0	350	74	10
0	354	74.429661862158	11
0	355	74.429661862158	12
0	356	75.060295318284	11
0	359	75.538397020239	12
0	360	75.538397020239	13
0	361	76	12
0	362	76	11
0	366	76.713386011282	12
0	367	76.713386011282	13
0	368	77.060295318284	12
0	370	78	11
0	371	78	10
0	375	78.258555169409	11
0	376	78.258555169409	12
0	378	78.364007783725	13
0	379	78.364007783725	14
0	380	79.060295318284	13
0	383	79.178010054878	14
0	384	79.178010054878	15
0	385	80	14
0	386	80	13
0	390	80.310149965547	14
0	391	80.310149965547	15
0	393	80.900389741799	16
0	394	80.900389741799	17
0	395	81.060295318284	16
0	397	82	15
0	398	82	14
0	402	82.226505725323	15
0	403	82.226505725323	16
0	404	83.060295318284	15
0	407	83.971944340569	16
0	408	83.971944340569	17
0	409	84	16
0	410	84	15
0	413	85.060295318284	14
0	416	85.751702111672	15
0	417	85.751702111672	16
0	418	86	15
0	419	86	14
0	423	86.400443231943	15
0	424	86.400443231943	16
0	426	86.545203036084	17
0	427	86.545203036084	18
0	428	87.060295318284	17
0	431	87.385807365784	18
0	432	87.385807365784	19
0	433	88	18
0	434	88	17
0	438	88.647823114139	18
0	439	88.647823114139	19
0	440	89.060295318284	18
0	443	89.38436661655	19
0	444	89.38436661655	20
0	445	90	19
0	446	90	18
0	450	90.154501983568	19
0	451	90.154501983568	20
0	453	90.569849517056	21
0	454	90.569849517056	22
0	455	91.060295318284	21
0	458	91.714052832896	22
0	459	91.714052832896	23
0	461	91.728519418885	24
0	462	91.728519418885	25
0	463	92	24
0	464	92	23
0	467	93.060295318284	22
0	470	93.26559690526	23
0	471	93.26559690526	24
0	473	93.954425893492	25
0	474	93.954425893492	26
0	475	94	25
0	476	94	24
0	479	95.060295318284	23
0	482	95.375707009531	24
0	483	95.375707009531	25
0	485	95.408529267482	26
0	486	95.408529267482	27
0	487	96	26
0	488	96	25
0	492	96.388745029028	26
0	493	96.388745029028	27
0	494	97.060295318284	26
0	497	97.619977627009	27
0	498	97.619977627009	28
0	499	98	27
0	500	98	26
0	504	98.519477182111	27
0	505	98.519477182111	28
0	506	99.060295318284	27
0	509	99.626927722	28
0	510	99.626927722	29
0	511	100	28
0	512	100	27
0	516	100.334239010379	28
0	517	100.334239010379	29
0	519	100.378346092447	30
0	520	100.378346092447	31
0	521	101.060295318284	30
0	523	102	29
0	524	102	28
0	528	102.543896492599	29
0	529	102.543896492599	30
0	530	103.060295318284	29
0	532	104	28
0	533	104	27
0	537	104.061413247065	28
0	538	104.061413247065	29
0	540	104.190211947162	30
0	541	104.190211947162	31
0	543	104.503086167497	32
0	544	104.503086167497	33
0	546	104.846716534825	34
0	547	104.846716534825	35
0	548	105.060295318284	34
0	550	106	33
0	551	106	32
0	555	106.276300943689	33
0	556	106.276300943689	34
0	557	107.060295318284	33
0	560	107.320670824263	34
0	561	107.320670824263	35
0	562	108	34
0	563	108	33
0	567	108.093338244135	34
0	568	108.093338244135	35
0	569	109.060295318284	34
0	572	109.21038512839	35
0	573	109.21038512839	36
0	574	110	35
0	575	110	34
0	579	110.490823267743	35
0	580	110.490823267743	36
0	581	111.060295318284	35
0	584	111.888809658164	36
0	585	111.888809658164	37
0	586	112	36
0	587	112	35
0	591	112.8511731335	36
0	592	112.8511731335	37
0	593	113.060295318284	36
0	596	113.733104382599	37
0	597	113.733104382599	38
0	598	114	37
0	599	114	36
0	603	114.634584449669	37
0	604	114.634584449669	38
0	605	115.060295318284	37
0	607	116	36
0	608	116	35
0	611	117.060295318284	34
0	614	117.194591089826	35
0	615	117.194591089826	36
0	617	117.722148422465	37
0	618	117.722148422465	38
0	619	118	37
0	620	118	36
0	623	119.060295318284	35
0	626	119.677998371135	36
0	627	119.677998371135	37
0	628	120	36
0	629	120	35
0	633	120.832331388465	36
0	634	120.832331388465	37
0	635	121.060295318284	36
0	638	121.327355481224	37
0	639	121.327355481224	38
0	641	121.866005267236	39
0	642	121.866005267236	40
0	643	122	39
0	644	122	38
0	647	123.060295318284	37
0	650	123.162457654613	38
0	651	123.162457654613	39
0	652	124	38
0	653	124	37
0	657	124.312217720548	38
0	658	124.312217720548	39
0	659	125.060295318284	38
0	662	125.713971632443	39
0	663	125.713971632443	40
0	664	126	39
0	665	126	38
0	669	126.771635577089	39
0	670	126.771635577089	40
0	671	127.060295318284	39
0	673	128	38
0	674	128	37
0	678	128.13550912608	38
0	679	128.13550912608	39
0	681	128.827059087775	40
0	682	128.827059087775	41
0	683	129.060295318284	40
0	686	129.700518301557	41
0	687	129.700518301557	42
0	688	130	41
0	689	130	40
0	693	130.472224200647	41
0	694	130.472224200647	42
0	695	131.060295318284	41
0	698	131.672614542701	42
0	699	131.672614542701	43
0	700	132	42
0	701	132	41
0	705	132.183272994436	42
0	706	132.183272994436	43
0	708	133.049435949931	44
0	709	133.049435949931	45
0	710	133.060295318284	44
0	712	134	43
0	713	134	42
0	717	134.280169843961	43
0	718	134.280169843961	44
0	719	135.060295318284	43
0	722	135.905485016222	44
0	723	135.905485016222	45
0	724	136	44
0	725	136	43
0	729	136.356193305206	44
0	730	136.356193305206	45
0	731	137.060295318284	44
0	734	137.24068679182	45
0	735	137.24068679182	46
0	736	138	45
0	737	138	44
0	741	138.950272392783	45
0	742	138.950272392783	46
0	743	139.060295318284	45
0	746	139.923951797973	46
0	747	139.923951797973	47
0	748	140	46
0	749	140	45
0	753	140.888440557958	46
0	754	140.888440557958	47
0	755	141.060295318284	46
0	758	141.742811242713	47
0	759	141.742811242713	48
0	760	142	47
0	761	142	46
0	764	143.060295318284	45
0	767	143.446544343123	46
0	768	143.446544343123	47
0	769	144	46
0	770	144	45
0	774	144.422885094607	46
0	775	144.422885094607	47
0	776	145.060295318284	46
0	778	146	45
0	779	146	44
0	783	146.697061141598	45
0	784	146.697061141598	46
0	785	147.060295318284	45
0	787	148	44
0	788	148	43
0	792	148.612941694728	44
0	793	148.612941694728	45
0	794	149.060295318284	44
0	797	149.400897799509	45
0	798	149.400897799509	46
0	800	149.479528572813	47
0	801	149.479528572813	48
0	802	150	47
0	803	150	46
0	807	150.421092657078	47
0	808	150.421092657078	48
0	809	151.060295318284	47
0	812	151.221086683196	48
0	813	151.221086683196	49
0	815	151.976695211898	50
0	816	151.976695211898	51
0	817	152	50
0	818	152	49
0	821	153.060295318284	48
0	824	153.583107808119	49
0	825	153.583107808119	50
0	826	154	49
0	827	154	48
0	831	154.081670129975	49
0	832	154.081670129975	50
0	833	155.060295318284	49
0	836	155.153476951623	50
0	837	155.153476951623	51
0	838	156	50
0	839	156	49
0	843	156.286147461271	50
0	844	156.286147461271	51
0	846	156.748469533004	52
0	847	156.748469533004	53
0	848	157.060295318284	52
0	851	157.792502187761	53
0	852	157.792502187761	54
0	853	158	53
0	854	158	52
0	858	158.567810984236	53
0	859	158.567810984236	54
0	860	159.060295318284	53
0	863	159.295996906604	54
0	864	159.295996906604	55
0	865	160	54
0	866	160	53
0	870	160.333684436524	54
0	871	160.333684436524	55
0	872	161.060295318284	54
0	875	161.880754505081	55
0	876	161.880754505081	56
0	877	162	55
0	878	162	54
0	882	162.844710626866	55
0	883	162.844710626866	56
0	884	163.060295318284	55
0	887	163.962092989274	56
0	888	163.962092989274	57
0	889	164	56
0	890	164	55
0	894	164.69208623868	56
0	895	164.69208623868	57
0	896	165.060295318284	56
0	898	166	55
0	899	166	54
0	903	166.042817494837	55
0	904	166.042817494837	56
0	906	166.819911163533	57
0	907	166.819911163533	58
0	908	167.060295318284	57
0	911	167.384980240227	58
0	912	167.384980240227	59
0	913	168	58
0	914	168	57
0	918	168.478180013952	58
0	919	168.478180013952	59
0	920	169.060295318284	58
0	923	169.400878651639	59
0	924	169.400878651639	60
0	925	170	59
0	926	170	58
0	930	170.105738857009	59
0	931	170.105738857009	60
0	932	171.060295318284	59
0	935	171.151127184245	60
0	936	171.151127184245	61
0	937	172	60
0	938	172	59
0	942	172.21965545754	60
0	943	172.21965545754	61
0	944	173.060295318284	60
0	947	173.425682033158	61
0	948	173.425682033158	62
0	949	174	61
0	950	174	60
0	954	174.502030272309	61
0	955	174.502030272309	62
0	957	174.652619158677	63
0	958	174.652619158677	64
0	959	175.060295318284	63
0	961	176	62
0	962	176	61
0	966	176.086553129813	62
0	967	176.086553129813	63
0	969	176.904592128476	64
0	970	176.904592128476	65
0	971	177.060295318284	64
0	974	177.643330035177	65
0	975	177.643330035177	66
0	977	177.890238195621	67
0	978	177.890238195621	68
0	979	178	67
0	980	178	66
0	983	179.060295318284	65
0	986	179.307629846723	66
0	987	179.307629846723	67
0	988	180	66
0	989	180	65
0	993	180.78633886477	66
0	994	180.78633886477	67
0	995	181.060295318284	66
0	998	181.362386385874	67
0	999	181.362386385874	68
0	1001	181.841565520997	69
0	1002	181.841565520997	70
0	1003	182	69
0	1004	182	68
0	1008	182.80374903475	69
0	1009	182.80374903475	70
0	1010	183.060295318284	69
0	1012	184	68
0	1013	184	67
0	1017	184.160182498447	68
0	1018	184.160182498447	69
0	1019	185.060295318284	68
0	1022	185.196377641227	69
0	1023	185.196377641227	70
0	1024	186	69
0	1025	186	68
0	1029	186.508500629925	69
0	1030	186.508500629925	70
0	1031	187.060295318284	69
0	1034	187.564021124127	70
0	1035	187.564021124127	71
0	1036	188	70
0	1037	188	69
0	1041	188.629322967627	70
0	1042	188.629322967627	71
0	1043	189.060295318284	70
0	1046	189.431982612849	71
0	1047	189.431982612849	72
0	1048	190	71
0	1049	190	70
0	1053	190.135777989383	71
0	1054	190.135777989383	72
0	1055	191.060295318284	71
0	1057	192	70
0	1058	192	69
0	1062	192.53953267598	70
0	1063	192.53953267598	71
0	1064	193.060295318284	70
0	1067	193.518353540534	71
0	1068	193.518353540534	72
0	1070	193.632415085068	73
0	1071	193.632415085068	74
0	1072	194	73
0	1073	194	72
0	1076	195.060295318284	71
0	1079	195.562211258994	72
0	1080	195.562211258994	73
0	1081	196	72
0	1082	196	71
0	1086	196.197997572	72
0	1087	196.197997572	73
0	1089	196.789962837324	74
0	1090	196.789962837324	75
0	1091	197.060295318284	74
0	1093	198	73
0	1094	198	72
0	1098	198.025709626787	73
0	1099	198.025709626787	74
0	1100	199.060295318284	73
0	1103	199.636059815698	74
0	1104	199.636059815698	75
0	1105	200	74
0	1106	200	73
0	1110	200.032774079653	74
0	1111	200.032774079653	75
0	1113	200.904867406922	76
0	1114	200.904867406922	77
0	1115	201.060295318284	76
0	1118	201.900157323489	77
0	1119	201.900157323489	78
0	1120	202	77
0	1121	202	76
0	1124	203.060295318284	75
0	1127	203.96425746067	76
0	1128	203.96425746067	77
0	1129	204	76
0	1130	204	75
0	1133	205.060295318284	74
0	1136	205.540731889563	75
0	1137	205.540731889563	76
0	1138	206	75
0	1139	206	74
0	1142	207.060295318284	73
0	1145	207.146590550203	74
0	1146	207.146590550203	75
0	1147	208	74
0	1148	208	73
0	1152	208.053908700936	74
0	1153	208.053908700936	75
0	1154	209.060295318284	74
0	1157	209.285897409512	75
0	1158	209.285897409512	76
0	1160	209.529876859256	77
0	1161	209.529876859256	78
0	1162	210	77
0	1163	210	76
0	1167	210.10686774196	77
0	1168	210.10686774196	78
0	1169	211.060295318284	77
0	1171	212	76
0	1172	212	75
0	1176	212.039579007476	76
0	1177	212.039579007476	77
0	1178	213.060295318284	76
0	1181	213.444691300497	77
0	1182	213.444691300497	78
0	1184	213.634971204437	79
0	1185	213.634971204437	80
0	1186	214	79
0	1187	214	78
0	1191	214.386156764144	79
0	1192	214.386156764144	80
0	1194	214.425669687503	81
0	1195	214.425669687503	82
0	1196	215.060295318284	81
0	1198	216	80
0	1199	216	79
0	1202	217.060295318284	78
0	1205	217.430944487167	79
0	1206	217.430944487167	80
0	1207	218	79
0	1208	218	78
0	1212	218.44565924255	79
0	1213	218.44565924255	80
0	1214	219.060295318284	79
0	1216	220	78
0	1217	220	77
0	1221	220.511880837758	78
0	1222	220.511880837758	79
0	1223	221.060295318284	78
0	1226	221.763581280067	79
0	1227	221.763581280067	80
0	1228	222	79
0	1229	222	78
0	1233	222.588436870633	79
0	1234	222.588436870633	80
0	1235	223.060295318284	79
0	1238	223.825000413496	80
0	1239	223.825000413496	81
0	1240	224	80
0	1241	224	79
0	1245	224.413475133607	80
0	1246	224.413475133607	81
0	1248	224.902812214407	82
0	1249	224.902812214407	83
0	1250	225.060295318284	82
0	1252	226	81
0	1253	226	80
0	1257	226.465312904896	81
0	1258	226.465312904896	82
0	1259	227.060295318284	81
0	1262	227.46625947541	82
0	1263	227.46625947541	83
0	1264	228	82
0	1265	228	81
0	1269	228.707351856141	82
0	1270	228.707351856141	83
0	1271	229.060295318284	82
0	1273	230	81
0	1274	230	80
0	1278	230.010175427369	81
0	1279	230.010175427369	82
0	1280	231.060295318284	81
0	1283	231.794170770971	82
0	1284	231.794170770971	83
0	1285	232	82
0	1286	232	81
0	1290	232.746817733325	82
0	1291	232.746817733325	83
0	1292	233.060295318284	82
0	1295	233.574308992243	83
0	1296	233.574308992243	84
0	1298	233.835499923779	85
0	1299	233.835499923779	86
0	1300	234	85
0	1301	234	84
0	1305	234.262193220989	85
0	1306	234.262193220989	86
0	1307	235.060295318284	85
0	1309	236	84
0	1310	236	83
0	1314	236.555907880213	84
0	1315	236.555907880213	85
0	1316	237.060295318284	84
0	1319	237.678874973342	85
0	1320	237.678874973342	86
0	1321	238	85
0	1322	238	84
0	1326	238.88125672054	85
0	1327	238.88125672054	86
0	1329	239.030583597896	87
0	1330	239.030583597896	88
0	1331	239.060295318284	87
0	1334	239.87765980702	88
0	1335	239.87765980702	89
0	1336	240	88
0	1337	240	87
0	1340	241.060295318284	86
0	1343	241.119673197818	87
0	1344	241.119673197818	88
0	1345	242	87
0	1346	242	86
0	1350	242.615495811906	87
0	1351	242.615495811906	88
0	1353	242.949359022726	89
0	1354	242.949359022726	90
0	1355	243.060295318284	89
0	1357	244	88
0	1358	244	87
0	1362	244.021479124337	88
0	1363	244.021479124337	89
0	1365	244.521964338936	90
0	1366	244.521964338936	91
0	1367	245.060295318284	90
0	1369	246	89
0	1370	246	88
0	1374	246.229506670755	89
0	1375	246.229506670755	90
0	1377	246.94489756858	91
0	1378	246.94489756858	92
0	1379	247.060295318284	91
0	1382	247.197253203497	92
0	1383	247.197253203497	93
0	1384	248	92
0	1385	248	91
0	1389	248.076306307518	92
0	1390	248.076306307518	93
0	1392	248.786941966567	94
0	1393	248.786941966567	95
0	1394	249.060295318284	94
0	1397	249.98366844531	95
0	1398	249.98366844531	96
0	1399	250	95
0	1400	250	94
0	1404	250.935821089716	95
0	1405	250.935821089716	96
0	1406	251.060295318284	95
0	1409	251.228896551033	96
0	1410	251.228896551033	97
0	1412	251.463766691196	98
0	1413	251.463766691196	99
0	1414	252	98
0	1415	252	97
0	1418	253.060295318284	96
0	1421	253.114451707669	97
0	1422	253.114451707669	98
0	1423	254	97
0	1424	254	96
0	1428	254.171585657206	97
0	1429	254.171585657206	98
0	1431	254.796783545266	99
0	1432	254.796783545266	100
0	1434	254.978434664047	101
0	1435	254.978434664047	102
0	1436	255.060295318284	101
0	1438	256	100
0	1439	256	99
0	1443	256.995559432483	100
0	1444	256.995559432483	101
0	1445	257.060295318284	100
0	1447	258	99
0	1448	258	98
0	1451	259.060295318284	97
0	1454	259.175109836477	98
0	1455	259.175109836477	99
0	1457	259.397523110413	100
0	1458	259.397523110413	101
0	1459	260	100
0	1460	260	99
0	1464	260.667364443432	100
0	1465	260.667364443432	101
0	1467	260.862300700463	102
0	1468	260.862300700463	103
0	1469	261.060295318284	102
0	1472	261.651728775695	103
0	1473	261.651728775695	104
0	1474	262	103
0	1475	262	102
0	1479	262.585711427257	103
0	1480	262.585711427257	104
0	1481	263.060295318284	103
0	1484	263.493859930629	104
0	1485	263.493859930629	105
0	1486	264	104
0	1487	264	103
0	1491	264.960383466733	104
0	1492	264.960383466733	105
0	1493	265.060295318284	104
0	1495	266	103
0	1496	266	102
0	1500	266.370338597593	103
0	1501	266.370338597593	104
0	1502	267.060295318284	103
0	1505	267.701029437611	104
0	1506	267.701029437611	105
0	1507	268	104
0	1508	268	103
0	1511	269.060295318284	102
0	1514	269.149027624297	103
0	1515	269.149027624297	104
0	1517	269.941908104534	105
0	1518	269.941908104534	106
0	1519	270	105
0	1520	270	104
0	1524	270.65993716173	105
0	1525	270.65993716173	106
0	1526	271.060295318284	105
0	1529	271.395920305753	106
0	1530	271.395920305753	107
0	1531	272	106
0	1532	272	105
0	1536	272.474200915688	106
0	1537	272.474200915688	107
0	1538	273.060295318284	106
0	1541	273.818640349713	107
0	1542	273.818640349713	108
0	1543	274	107
0	1544	274	106
0	1547	275.060295318284	105
0	1550	275.246386203634	106
0	1551	275.246386203634	107
0	1552	276	106
0	1553	276	105
0	1557	276.653242167475	106
0	1558	276.653242167475	107
0	1559	277.060295318284	106
0	1562	277.14575364778	107
0	1563	277.14575364778	108
0	1565	277.269757528056	109
0	1566	277.269757528056	110
0	1567	278	109
0	1568	278	108
0	1572	278.084845402216	109
0	1573	278.084845402216	110
0	1574	279.060295318284	109
0	1577	279.534405108399	110
0	1578	279.534405108399	111
0	1579	280	110
0	1580	280	109
0	1584	280.684095354289	110
0	1585	280.684095354289	111
0	1587	280.863061008842	112
0	1588	280.863061008842	113
0	1589	281.060295318284	112
0	1592	281.834516134504	113
0	1593	281.834516134504	114
0	1594	282	113
0	1595	282	112
0	1599	282.597995188393	113
0	1600	282.597995188393	114
0	1602	282.727206194463	115
0	1603	282.727206194463	116
0	1604	283.060295318284	115
0	1606	284	114
0	1607	284	113
0	1611	284.202763211009	114
0	1612	284.202763211009	115
0	1613	285.060295318284	114
0	1616	285.335637643131	115
0	1617	285.335637643131	116
0	1618	286	115
0	1619	286	114
0	1623	286.722075655723	115
0	1624	286.722075655723	116
0	1625	287.060295318284	115
0	1628	287.544897586095	116
0	1629	287.544897586095	117
0	1630	288	116
0	1631	288	115
0	1635	288.950195281017	116
0	1636	288.950195281017	117
0	1637	289.060295318284	116
0	1640	289.724017297883	117
0	1641	289.724017297883	118
0	1642	290	117
0	1643	290	116
0	1646	291.060295318284	115
0	1649	291.573378599854	116
0	1650	291.573378599854	117
0	1651	292	116
0	1652	292	115
0	1656	292.146210058851	116
0	1657	292.146210058851	117
0	1659	293.004860098064	118
0	1660	293.004860098064	119
0	1661	293.060295318284	118
0	1664	293.955197338673	119
0	1665	293.955197338673	120
0	1666	294	119
0	1667	294	118
0	1670	295.060295318284	117
0	1673	295.757512459744	118
0	1674	295.757512459744	119
0	1675	296	118
0	1676	296	117
0	1680	296.08217991543	118
0	1681	296.08217991543	119
0	1683	296.940916267947	120
0	1684	296.940916267947	121
0	1685	297.060295318284	120
0	1688	297.955206740391	121
0	1689	297.955206740391	122
0	1690	298	121
0	1691	298	120
0	1695	298.036538461869	121
0	1696	298.036538461869	122
0	1698	298.457970767958	123
0	1699	298.457970767958	124
0	1700	299.060295318284	123
0	1703	299.814613894583	124
0	1704	299.814613894583	125
0	1705	300	124
0	1706	300	123
0	1710	300.282106103268	124
0	1711	300.282106103268	125
0	1712	301.060295318284	124
0	1715	301.2402987314	125
0	1716	301.2402987314	126
0	1717	302	125
0	1718	302	124
0	1722	302.640983368333	125
0	1723	302.640983368333	126
0	1724	303.060295318284	125
0	1727	303.320244094236	126
0	1728	303.320244094236	127
0	1730	303.973511776906	128
0	1731	303.973511776906	129
0	1732	304	128
0	1733	304	127
0	1737	304.53581262156	128
0	1738	304.53581262156	129
0	1739	305.060295318284	128
0	1742	305.732063865404	129
0	1743	305.732063865404	130
0	1744	306	129
0	1745	306	128
0	1748	307.060295318284	127
0	1751	307.066302692737	128
0	1752	307.066302692737	129
0	1754	307.638500425816	130
0	1755	307.638500425816	131
0	1756	308	130
0	1757	308	129
0	1760	309.060295318284	128
0	1763	309.19458016554	129
0	1764	309.19458016554	130
0	1765	310	129
0	1766	310	128
0	1770	310.978409678227	129
0	1771	310.978409678227	130
0	1772	311.060295318284	129
0	1775	311.544076394544	130
0	1776	311.544076394544	131
0	1777	312	130
0	1778	312	129
0	1782	312.058030693718	130
0	1783	312.058030693718	131
0	1784	313.060295318284	130
0	1787	313.463327201711	131
0	1788	313.463327201711	132
0	1789	314	131
0	1790	314	130
0	1794	314.998165096448	131
0	1795	314.998165096448	132
0	1796	315.060295318284	131
0	1799	315.459102214406	132
0	1800	315.459102214406	133
0	1801	316	132
0	1802	316	131
0	1805	317.060295318284	130
0	1808	317.369693814041	131
0	1809	317.369693814041	132
0	1810	318	131
0	1811	318	130
0	1815	318.043268325771	131
0	1816	318.043268325771	132
0	1818	318.503368833994	133
0	1819	318.503368833994	134
0	1820	319.060295318284	133
0	1822	320	132
0	1823	320	131
0	1827	320.629760073443	132
0	1828	320.629760073443	133
0	1829	321.060295318284	132
0	1832	321.410873247038	133
0	1833	321.410873247038	134
0	1834	322	133
0	1835	322	132
0	1838	323.060295318284	131
0	1841	323.115949020034	132
0	1842	323.115949020034	133
0	1843	324	132
0	1844	324	131
0	1848	324.279036219617	132
0	1849	324.279036219617	133
0	1850	325.060295318284	132
0	1853	325.825699900823	133
0	1854	325.825699900823	134
0	1855	326	133
0	1856	326	132
0	1860	326.077390290581	133
0	1861	326.077390290581	134
0	1863	326.11106243213	135
0	1864	326.11106243213	136
0	1865	327.060295318284	135
0	1868	327.991868508514	136
0	1869	327.991868508514	137
0	1870	328	136
0	1871	328	135
0	1875	328.959182569554	136
0	1876	328.959182569554	137
0	1877	329.060295318284	136
0	1879	330	135
0	1880	330	134
0	1884	330.001908024312	135
0	1885	330.001908024312	136
0	1887	331.034460379216	137
0	1888	331.034460379216	138
0	1889	331.060295318284	137
0	1892	331.732271737672	138
0	1893	331.732271737672	139
0	1894	332	138
0	1895	332	137
0	1899	332.697421392704	138
0	1900	332.697421392704	139
0	1901	333.060295318284	138
0	1904	333.351776157563	139
0	1905	333.351776157563	140
0	1907	333.546970163922	141
0	1908	333.546970163922	142
0	1909	334	141
0	1910	334	140
0	1914	334.005371317879	141
0	1915	334.005371317879	142
0	1917	334.737614290475	143
0	1918	334.737614290475	144
0	1919	335.060295318284	143
0	1921	336	142
0	1922	336	141
0	1926	336.213115519122	142
0	1927	336.213115519122	143
0	1928	337.060295318284	142
0	1931	337.18112113992	143
0	1932	337.18112113992	144
0	1933	338	143
0	1934	338	142
0	1938	338.644463151767	143
0	1939	338.644463151767	144
0	1940	339.060295318284	143
0	1943	339.881636235378	144
0	1944	339.881636235378	145
0	1945	340	144
0	1946	340	143
0	1950	340.889365577537	144
0	1951	340.889365577537	145
0	1952	341.060295318284	144
0	1955	341.845496075352	145
0	1956	341.845496075352	146
0	1957	342	145
0	1958	342	144
0	1961	343.060295318284	143
0	1964	343.617023109229	144
0	1965	343.617023109229	145
0	1966	344	144
0	1967	344	143
0	1971	344.550332373029	144
0	1972	344.550332373029	145
0	1974	344.71237182085	146
0	1975	344.71237182085	147
0	1976	345.060295318284	146
0	1979	345.907411535609	147
0	1980	345.907411535609	148
0	1981	346	147
0	1982	346	146
0	1986	346.680034516355	147
0	1987	346.680034516355	148
0	1989	346.982539232085	149
0	1990	346.982539232085	150
0	1991	347.060295318284	149
0	1993	348	148
0	1994	348	147
0	1998	348.742858776575	148
0	1999	348.742858776575	149
0	2000	349.060295318284	148
0	2003	349.335248900115	149
0	2004	349.335248900115	150
0	2005	350	149
0	2006	350	148
0	2010	350.541096692831	149
0	2011	350.541096692831	150
0	2012	351.060295318284	149
0	2015	351.828269725859	150
0	2016	351.828269725859	151
0	2017	352	150
0	2018	352	149
0	2021	353.060295318284	148
0	2024	353.483574620181	149
0	2025	353.483574620181	150
0	2026	354	149
0	2027	354	148
0	2031	354.315792792016	149
0	2032	354.315792792016	150
0	2033	355.060295318284	149
0	2036	355.774347729591	150
0	2037	355.774347729591	151
0	2038	356	150
0	2039	356	149
0	2043	356.170527740211	150
0	2044	356.170527740211	151
0	2045	357.060295318284	150
0	2048	357.635026226073	151
0	2049	357.635026226073	152
0	2050	358	151
0	2051	358	150
0	2055	358.144513750439	151
0	2056	358.144513750439	152
0	2057	359.060295318284	151
0	2059	360	150
0	2060	360	149
0	2064	360.100336302794	150
0	2065	360.100336302794	151
0	2066	361.060295318284	150
0	2069	361.245716047021	151
0	2070	361.245716047021	152
0	2071	362	151
0	2072	362	150
0	2076	362.260856508309	151
0	2077	362.260856508309	152
0	2079	362.548563118856	153
0	2080	362.548563118856	154
0	2081	363.060295318284	153
0	2084	363.254146038322	154
0	2085	363.254146038322	155
0	2087	363.462032384033	156
0	2088	363.462032384033	157
0	2089	364	156
0	2090	364	155
0	2093	365.060295318284	154
0	2096	365.623476040889	155
0	2097	365.623476040889	156
0	2098	366	155
0	2099	366	154
0	2103	366.164821511187	155
0	2104	366.164821511187	156
0	2105	367.060295318284	155
0	2108	367.526511728558	156
0	2109	367.526511728558	157
0	2110	368	156
0	2111	368	155
0	2115	368.867400269505	156
0	2116	368.867400269505	157
0	2117	369.060295318284	156
0	2119	370	155
0	2120	370	154
0	2124	370.370468633689	155
0	2125	370.370468633689	156
0	2126	371.060295318284	155
0	2128	372	154
0	2129	372	153
0	2133	372.747721172747	154
0	2134	372.747721172747	155
0	2135	373.060295318284	154
0	2138	373.778185842685	155
0	2139	373.778185842685	156
0	2140	374	155
0	2141	374	154
0	2145	374.86858760261	155
0	2146	374.86858760261	156
0	2147	375.060295318284	155
0	2150	375.689650058724	156
0	2151	375.689650058724	157
0	2152	376	156
0	2153	376	155
0	2157	376.995679837336	156
0	2158	376.995679837336	157
0	2159	377.060295318284	156
0	2161	378	155
0	2162	378	154