version 3
run MMc-30-20221127-11:38:41-21264
attr configname MMc
attr datetime 20221127-11:38:41
attr datetimef 20221127-113841
attr experiment MMc
attr inifile omnetpp.ini
attr iterationvars "$mean=uniform(0.5s, 1.5s), $dev=0.5*(uniform(0.5s, 1.5s)), $time=2.0, $num=3, $0=47853, $1=24674, $2=96433"
attr iterationvarsd mean=uniform(0.5s,_1.5s)/dev=0.5#2a(uniform(0.5s,_1.5s))/time=2.0/num=3/47853/24674/96433
attr iterationvarsf mean=uniform(0.5s,_1.5s),dev=0.5#2a(uniform(0.5s,_1.5s)),time=2.0,num=3,47853,24674,96433-
attr measurement "$mean=uniform(0.5s, 1.5s), $dev=0.5*(uniform(0.5s, 1.5s)), $time=2.0, $num=3, $0=47853, $1=24674, $2=96433"
attr network MMc
attr processid 21264
attr repetition 2
attr replication #2
attr resultdir results
attr runnumber 30
attr seedset 30
itervar dev "0.5*(uniform(0.5s, 1.5s))"
itervar mean "uniform(0.5s, 1.5s)"
itervar num 3
itervar time 2.0
config description "MMc module"
config network MMc
config MMc.source.interArrivalTime "truncnormal(uniform(0.5s, 1.5s), 0.5*(uniform(0.5s, 1.5s)))"
config MMc.mmc.serviceTime 2.0s
config MMc.mmc.c 3
config MMc.mmc.capacity 10000
config record-eventlog false
config **.scalar-recording true
config **.vector-recording true
config repeat 4
config seed-1-mt 47853
config seed-2-mt 24674
config seed-3-mt 96433
config output-vector-file MMc-3-2.0-results/2.vec
config output-scalar-file MMc-3-2.0-results/2.sca

vector 0 MMc.mmc queueLength:vector ETV
attr interpolationmode none
attr recordingmode vector
attr title "queue length"
vector 1 MMc.mmc util:vector ETV
attr interpolationmode none
attr recordingmode vector
attr title resources
0	0	0	0
0	6	11.281570627921	1
0	7	12	0
0	13	12.27541893865	1
0	14	13.281570627921	0
0	17	13.287904651036	1
0	18	13.287904651036	2
0	19	14	1
0	21	14.27541893865	0
0	24	14.607784588925	1
0	25	14.607784588925	2
0	26	15.281570627921	1
0	29	15.444619200117	2
0	30	15.444619200117	3
0	31	16	2
0	34	16.083116945214	3
0	35	16.083116945214	4
0	36	16.27541893865	3
0	38	17.281570627921	2
0	40	18	1
0	43	18.230685210599	2
0	44	18.230685210599	3
0	45	18.27541893865	2
0	47	19.281570627921	1
0	50	19.690479412599	2
0	51	19.690479412599	3
0	52	20	2
0	54	20.27541893865	1
0	57	20.655615832816	2
0	58	20.655615832816	3
0	59	21.281570627921	2
0	61	22	1
0	63	22.27541893865	0
0	66	22.347415973411	1
0	67	22.347415973411	2
0	68	23.281570627921	1
0	71	23.760127467868	2
0	72	23.760127467868	3
0	73	24	2
0	75	24.27541893865	1
0	78	24.598555447695	2
0	79	24.598555447695	3
0	80	25.281570627921	2
0	82	26	1
0	84	26.27541893865	0
0	87	26.36425417619	1
0	88	26.36425417619	2
0	90	26.50654249414	3
0	91	26.50654249414	4
0	92	27.281570627921	3
0	95	27.886366125363	4
0	96	27.886366125363	5
0	97	28	4
0	99	28.27541893865	3
0	101	29.281570627921	2
0	104	29.913861154396	3
0	105	29.913861154396	4
0	106	30	3
0	108	30.27541893865	2
0	111	30.887444983069	3
0	112	30.887444983069	4
0	113	31.281570627921	3
0	116	31.772518749243	4
0	117	31.772518749243	5
0	118	32	4
0	121	32.156738896176	5
0	122	32.156738896176	6
0	123	32.27541893865	5
0	126	32.895275451264	6
0	127	32.895275451264	7
0	128	33.281570627921	6
0	131	33.404300430092	7
0	132	33.404300430092	8
0	133	34	7
0	135	34.27541893865	6
0	138	34.281460874641	7
0	139	34.281460874641	8
0	141	34.884495109305	9
0	142	34.884495109305	10
0	143	35.281570627921	9
0	145	36	8
0	148	36.026929645899	9
0	149	36.026929645899	10
0	151	36.183540251498	11
0	152	36.183540251498	12
0	153	36.27541893865	11
0	156	36.955018209269	12
0	157	36.955018209269	13
0	158	37.281570627921	12
0	160	38	11
0	162	38.27541893865	10
0	165	38.856657300336	11
0	166	38.856657300336	12
0	168	39.241568146274	13
0	169	39.241568146274	14
0	170	39.281570627921	13
0	172	40	12
0	174	40.27541893865	11
0	177	40.335997619769	12
0	178	40.335997619769	13
0	179	41.281570627921	12
0	182	41.69350849231	13
0	183	41.69350849231	14
0	184	42	13
0	186	42.27541893865	12
0	189	43.120522413532	13
0	190	43.120522413532	14
0	191	43.281570627921	13
0	193	44	12
0	195	44.27541893865	11
0	198	44.681946552103	12
0	199	44.681946552103	13
0	200	45.281570627921	12
0	202	46	11
0	205	46.219407868261	12
0	206	46.219407868261	13
0	207	46.27541893865	12
0	210	46.527533656452	13
0	211	46.527533656452	14
0	212	47.281570627921	13
0	215	47.796212975808	14
0	216	47.796212975808	15
0	217	48	14
0	219	48.27541893865	13
0	222	49.16874423849	14
0	223	49.16874423849	15
0	224	49.281570627921	14
0	227	49.776594676482	15
0	228	49.776594676482	16
0	229	50	15
0	231	50.27541893865	14
0	234	50.832018058614	15
0	235	50.832018058614	16
0	237	51.182227634593	17
0	238	51.182227634593	18
0	239	51.281570627921	17
0	242	51.939397667494	18
0	243	51.939397667494	19
0	244	52	18
0	246	52.27541893865	17
0	248	53.281570627921	16
0	251	53.903340944808	17
0	252	53.903340944808	18
0	253	54	17
0	255	54.27541893865	16
0	258	54.792453888919	17
0	259	54.792453888919	18
0	260	55.281570627921	17
0	262	56	16
0	265	56.003414477635	17
0	266	56.003414477635	18
0	267	56.27541893865	17
0	270	56.37425025923	18
0	271	56.37425025923	19
0	273	56.907465385055	20
0	274	56.907465385055	21
0	275	57.281570627921	20
0	278	57.779728436769	21
0	279	57.779728436769	22
0	280	58	21
0	282	58.27541893865	20
0	285	59.067233318067	21
0	286	59.067233318067	22
0	288	59.081988619764	23
0	289	59.081988619764	24
0	290	59.281570627921	23
0	293	59.741224755156	24
0	294	59.741224755156	25
0	295	60	24
0	297	60.27541893865	23
0	300	61.234305417269	24
0	301	61.234305417269	25
0	302	61.281570627921	24
0	304	62	23
0	306	62.27541893865	22
0	309	62.499219588241	23
0	310	62.499219588241	24
0	312	63.220202450083	25
0	313	63.220202450083	26
0	314	63.281570627921	25
0	316	64	24
0	319	64.052000323888	25
0	320	64.052000323888	26
0	321	64.27541893865	25
0	324	65.240989366612	26
0	325	65.240989366612	27
0	326	65.281570627921	26
0	328	66	25
0	330	66.27541893865	24
0	333	66.354906235249	25
0	334	66.354906235249	26
0	335	67.281570627921	25
0	337	68	24
0	339	68.27541893865	23
0	342	68.783367632809	24
0	343	68.783367632809	25
0	344	69.281570627921	24
0	346	70	23
0	348	70.27541893865	22
0	351	70.666035746424	23
0	352	70.666035746424	24
0	353	71.281570627921	23
0	356	71.727453049963	24
0	357	71.727453049963	25
0	358	72	24
0	360	72.27541893865	23
0	363	72.851602512781	24
0	364	72.851602512781	25
0	365	73.281570627921	24
0	368	73.451799821596	25
0	369	73.451799821596	26
0	370	74	25
0	373	74.18576157082	26
0	374	74.18576157082	27
0	375	74.27541893865	26
0	377	75.281570627921	25
0	379	76	24
0	382	76.102877894191	25
0	383	76.102877894191	26
0	384	76.27541893865	25
0	387	76.625122240748	26
0	388	76.625122240748	27
0	389	77.281570627921	26
0	392	77.569526880214	27
0	393	77.569526880214	28
0	394	78	27
0	396	78.27541893865	26
0	398	79.281570627921	25
0	401	79.376636661154	26
0	402	79.376636661154	27
0	403	80	26
0	405	80.27541893865	25
0	408	80.707790917094	26
0	409	80.707790917094	27
0	410	81.281570627921	26
0	412	82	25
0	415	82.136025547343	26
0	416	82.136025547343	27
0	417	82.27541893865	26
0	420	83.066144759327	27
0	421	83.066144759327	28
0	422	83.281570627921	27
0	424	84	26
0	427	84.242991955137	27
0	428	84.242991955137	28
0	429	84.27541893865	27
0	431	85.281570627921	26
0	434	85.882008734543	27
0	435	85.882008734543	28
0	436	86	27
0	438	86.27541893865	26
0	441	86.75568084182	27
0	442	86.75568084182	28
0	444	87.068548558377	29
0	445	87.068548558377	30
0	446	87.281570627921	29
0	449	87.924876395056	30
0	450	87.924876395056	31
0	451	88	30
0	453	88.27541893865	29
0	456	88.801224943322	30
0	457	88.801224943322	31
0	459	88.920424360559	32
0	460	88.920424360559	33
0	461	89.281570627921	32
0	464	89.886313347915	33
0	465	89.886313347915	34
0	466	90	33
0	469	90.182546409353	34
0	470	90.182546409353	35
0	471	90.27541893865	34
0	474	91.245096682759	35
0	475	91.245096682759	36
0	476	91.281570627921	35
0	478	92	34
0	480	92.27541893865	33
0	483	92.593648055763	34
0	484	92.593648055763	35
0	485	93.281570627921	34
0	488	93.571149045179	35
0	489	93.571149045179	36
0	490	94	35
0	492	94.27541893865	34
0	494	95.281570627921	33
0	497	95.459233256493	34
0	498	95.459233256493	35
0	500	95.947945522523	36
0	501	95.947945522523	37
0	502	96	36
0	504	96.27541893865	35
0	506	97.281570627921	34
0	509	97.326930979662	35
0	510	97.326930979662	36
0	511	98	35
0	513	98.27541893865	34
0	515	99.281570627921	33
0	518	99.558422658787	34
0	519	99.558422658787	35
0	520	100	34
0	522	100.27541893865	33
0	525	100.418013692157	34
0	526	100.418013692157	35
0	527	101.281570627921	34
0	530	101.74668494582	35
0	531	101.74668494582	36
0	532	102	35
0	534	102.27541893865	34
0	537	102.385457387262	35
0	538	102.385457387262	36
0	540	103.033265170385	37
0	541	103.033265170385	38
0	542	103.281570627921	37
0	544	104	36
0	546	104.27541893865	35
0	549	104.50728429081	36
0	550	104.50728429081	37
0	551	105.281570627921	36
0	554	105.574475844092	37
0	555	105.574475844092	38
0	556	106	37
0	558	106.27541893865	36
0	561	107.262467735104	37
0	562	107.262467735104	38
0	563	107.281570627921	37
0	566	107.94785377886	38
0	567	107.94785377886	39
0	568	108	38
0	570	108.27541893865	37
0	573	108.917225905086	38
0	574	108.917225905086	39
0	575	109.281570627921	38
0	577	110	37
0	580	110.166559760099	38
0	581	110.166559760099	39
0	582	110.27541893865	38
0	585	110.356324319285	39
0	586	110.356324319285	40
0	587	111.281570627921	39
0	590	111.849031706091	40
0	591	111.849031706091	41
0	592	112	40
0	595	112.098532950508	41
0	596	112.098532950508	42
0	597	112.27541893865	41
0	600	112.627629933681	42
0	601	112.627629933681	43
0	602	113.281570627921	42
0	604	114	41
0	606	114.27541893865	40
0	609	114.68710218889	41
0	610	114.68710218889	42
0	611	115.281570627921	41
0	614	115.651183197416	42
0	615	115.651183197416	43
0	617	115.745516080855	44
0	618	115.745516080855	45
0	619	116	44
0	621	116.27541893865	43
0	624	117.13374951285	44
0	625	117.13374951285	45
0	626	117.281570627921	44
0	629	117.951625796475	45
0	630	117.951625796475	46
0	631	118	45
0	633	118.27541893865	44
0	636	118.882530003595	45
0	637	118.882530003595	46
0	638	119.281570627921	45
0	641	119.8340810229	46
0	642	119.8340810229	47
0	643	120	46
0	645	120.27541893865	45
0	648	120.466714139919	46
0	649	120.466714139919	47
0	650	121.281570627921	46
0	653	121.462239569753	47
0	654	121.462239569753	48
0	655	122	47
0	657	122.27541893865	46
0	660	123.049103102454	47
0	661	123.049103102454	48
0	662	123.281570627921	47
0	664	124	46
0	667	124.185598980756	47
0	668	124.185598980756	48
0	669	124.27541893865	47
0	671	125.281570627921	46
0	674	125.980434316961	47
0	675	125.980434316961	48
0	676	126	47
0	678	126.27541893865	46
0	680	127.281570627921	45
0	682	128	44
0	685	128.09562980122	45
0	686	128.09562980122	46
0	687	128.27541893865	45
0	690	128.875789547895	46
0	691	128.875789547895	47
0	692	129.281570627921	46
0	695	129.773013980372	47
0	696	129.773013980372	48
0	698	129.94202271991	49
0	699	129.94202271991	50
0	700	130	49
0	702	130.27541893865	48
0	705	131.227921843577	49
0	706	131.227921843577	50
0	707	131.281570627921	49
0	709	132	48
0	711	132.27541893865	47
0	714	132.301899382364	48
0	715	132.301899382364	49
0	716	133.281570627921	48
0	719	133.500814756591	49
0	720	133.500814756591	50
0	722	133.841993035332	51
0	723	133.841993035332	52
0	724	134	51
0	726	134.27541893865	50
0	729	134.424334214011	51
0	730	134.424334214011	52
0	731	135.281570627921	51
0	734	135.579374737512	52
0	735	135.579374737512	53
0	736	136	52
0	738	136.27541893865	51
0	741	136.571421234137	52
0	742	136.571421234137	53
0	743	137.281570627921	52
0	746	137.877829654549	53
0	747	137.877829654549	54
0	748	138	53
0	750	138.27541893865	52
0	753	138.817607794551	53
0	754	138.817607794551	54
0	756	139.209232112085	55
0	757	139.209232112085	56
0	758	139.281570627921	55
0	760	140	54
0	762	140.27541893865	53
0	765	140.910704550397	54
0	766	140.910704550397	55
0	768	141.199824398897	56
0	769	141.199824398897	57
0	770	141.281570627921	56
0	772	142	55
0	775	142.098984462422	56
0	776	142.098984462422	57
0	777	142.27541893865	56
0	780	142.929661494186	57
0	781	142.929661494186	58
0	782	143.281570627921	57
0	784	144	56
0	786	144.27541893865	55
0	789	144.582205910823	56
0	790	144.582205910823	57
0	792	145.249450015987	58
0	793	145.249450015987	59
0	794	145.281570627921	58
0	796	146	57
0	799	146.140335060484	58
0	800	146.140335060484	59
0	801	146.27541893865	58
0	804	147.070775912226	59
0	805	147.070775912226	60
0	807	147.251120333142	61
0	808	147.251120333142	62
0	809	147.281570627921	61
0	812	147.537702088813	62
0	813	147.537702088813	63
0	814	148	62
0	816	148.27541893865	61
0	819	148.286126960672	62
0	820	148.286126960672	63
0	821	149.281570627921	62
0	824	149.429342877914	63
0	825	149.429342877914	64
0	826	150	63
0	828	150.27541893865	62
0	831	150.962467000058	63
0	832	150.962467000058	64
0	833	151.281570627921	63
0	835	152	62
0	837	152.27541893865	61
0	840	152.682589931842	62
0	841	152.682589931842	63
0	843	153.185475246755	64
0	844	153.185475246755	65
0	845	153.281570627921	64
0	848	153.828317114505	65
0	849	153.828317114505	66
0	850	154	65
0	853	154.188562413195	66
0	854	154.188562413195	67
0	855	154.27541893865	66
0	857	155.281570627921	65
0	860	155.476826673133	66
0	861	155.476826673133	67
0	862	156	66
0	865	156.077151199694	67
0	866	156.077151199694	68
0	867	156.27541893865	67
0	870	156.802381372806	68
0	871	156.802381372806	69
0	872	157.281570627921	68
0	875	157.636146436419	69
0	876	157.636146436419	70
0	878	157.845812288258	71
0	879	157.845812288258	72
0	880	158	71
0	882	158.27541893865	70
0	885	158.878243117475	71
0	886	158.878243117475	72
0	888	158.924687633094	73
0	889	158.924687633094	74
0	890	159.281570627921	73
0	893	159.58437747582	74
0	894	159.58437747582	75
0	895	160	74
0	897	160.27541893865	73
0	900	160.483422102604	74
0	901	160.483422102604	75
0	903	161.234097187567	76
0	904	161.234097187567	77
0	905	161.281570627921	76
0	907	162	75
0	910	162.123152113132	76
0	911	162.123152113132	77
0	912	162.27541893865	76
0	914	163.281570627921	75
0	917	163.939492073278	76
0	918	163.939492073278	77
0	919	164	76
0	921	164.27541893865	75
0	923	165.281570627921	74
0	926	165.983534124826	75
0	927	165.983534124826	76
0	928	166	75
0	930	166.27541893865	74
0	932	167.281570627921	73
0	934	168	72
0	936	168.27541893865	71
0	939	168.329391035225	72
0	940	168.329391035225	73
0	942	169.096864099355	74
0	943	169.096864099355	75
0	944	169.281570627921	74
0	946	170	73
0	948	170.27541893865	72
0	951	170.508359690887	73
0	952	170.508359690887	74
0	953	171.281570627921	73
0	956	171.489722033358	74
0	957	171.489722033358	75
0	959	171.812610677914	76
0	960	171.812610677914	77
0	961	172	76
0	963	172.27541893865	75
0	966	172.736604456022	76
0	967	172.736604456022	77
0	968	173.281570627921	76
0	971	173.406299223067	77
0	972	173.406299223067	78
0	973	174	77
0	975	174.27541893865	76
0	978	175.096509963881	77
0	979	175.096509963881	78
0	980	175.281570627921	77
0	982	176	76
0	984	176.27541893865	75
0	987	176.644583574753	76
0	988	176.644583574753	77
0	989	177.281570627921	76
0	992	177.999904453712	77
0	993	177.999904453712	78
0	994	178	77
0	996	178.27541893865	76
0	999	178.602787995118	77
0	1000	178.602787995118	78
0	1001	179.281570627921	77
0	1003	180	76
0	1006	180.047591232497	77
0	1007	180.047591232497	78
0	1008	180.27541893865	77
0	1011	180.976553750757	78
0	1012	180.976553750757	79
0	1013	181.281570627921	78
0	1015	182	77
0	1017	182.27541893865	76
0	1020	182.470558032733	77
0	1021	182.470558032733	78
0	1022	183.281570627921	77
0	1025	183.421738697247	78
0	1026	183.421738697247	79
0	1027	184	78
0	1029	184.27541893865	77
0	1032	184.85289417975	78
0	1033	184.85289417975	79
0	1034	185.281570627921	78
0	1037	185.80311028576	79
0	1038	185.80311028576	80
0	1039	186	79
0	1041	186.27541893865	78
0	1044	186.677569225535	79
0	1045	186.677569225535	80
0	1047	186.950873574167	81
0	1048	186.950873574167	82
0	1049	187.281570627921	81
0	1052	187.773278154995	82
0	1053	187.773278154995	83
0	1054	188	82
0	1057	188.117189942176	83
0	1058	188.117189942176	84
0	1059	188.27541893865	83
0	1062	188.572203894087	84
0	1063	188.572203894087	85
0	1064	189.281570627921	84
0	1067	189.884152199533	85
0	1068	189.884152199533	86
0	1069	190	85
0	1071	190.27541893865	84
0	1074	190.821618846054	85
0	1075	190.821618846054	86
0	1076	191.281570627921	85
0	1079	191.897267676844	86
0	1080	191.897267676844	87
0	1081	192	86
0	1083	192.27541893865	85
0	1086	192.800624504071	86
0	1087	192.800624504071	87
0	1088	193.281570627921	86
0	1091	193.923634873688	87
0	1092	193.923634873688	88
0	1093	194	87
0	1095	194.27541893865	86
0	1097	195.281570627921	85
0	1100	195.356928460796	86
0	1101	195.356928460796	87
0	1102	196	86
0	1104	196.27541893865	85
0	1107	196.400802326146	86
0	1108	196.400802326146	87
0	1109	197.281570627921	86
0	1112	197.992019628291	87
0	1113	197.992019628291	88
0	1114	198	87
0	1116	198.27541893865	86
0	1119	198.545189122089	87
0	1120	198.545189122089	88
0	1121	199.281570627921	87
0	1124	199.349846663571	88
0	1125	199.349846663571	89
0	1126	200	88
0	1129	200.181885508737	89
0	1130	200.181885508737	90
0	1131	200.27541893865	89
0	1133	201.281570627921	88
0	1136	201.546969765978	89
0	1137	201.546969765978	90
0	1138	202	89
0	1140	202.27541893865	88
0	1143	203.188788775643	89
0	1144	203.188788775643	90
0	1145	203.281570627921	89
0	1147	204	88
0	1150	204.251346359495	89
0	1151	204.251346359495	90
0	1152	204.27541893865	89
0	1154	205.281570627921	88
0	1156	206	87
0	1158	206.27541893865	86
0	1161	206.747668663287	87
0	1162	206.747668663287	88
0	1163	207.281570627921	87
0	1166	207.660656064872	88
0	1167	207.660656064872	89
0	1168	208	88
0	1170	208.27541893865	87
0	1172	209.281570627921	86
0	1175	209.426069251641	87
0	1176	209.426069251641	88
0	1177	210	87
0	1179	210.27541893865	86
0	1182	210.671561006544	87
0	1183	210.671561006544	88
0	1184	211.281570627921	87
0	1187	211.547098600773	88
0	1188	211.547098600773	89
0	1189	212	88
0	1191	212.27541893865	87
0	1194	212.955436589802	88
0	1195	212.955436589802	89
0	1197	212.975263262888	90
0	1198	212.975263262888	91
0	1199	213.281570627921	90
0	1201	214	89
0	1203	214.27541893865	88
0	1206	214.609391868575	89
0	1207	214.609391868575	90
0	1208	215.281570627921	89
0	1211	215.794397084144	90
0	1212	215.794397084144	91
0	1213	216	90
0	1215	216.27541893865	89
0	1218	216.363739732612	90
0	1219	216.363739732612	91
0	1220	217.281570627921	90
0	1223	217.954784642452	91
0	1224	217.954784642452	92
0	1225	218	91
0	1227	218.27541893865	90
0	1229	219.281570627921	89
0	1232	219.640848661125	90
0	1233	219.640848661125	91
0	1234	220	90
0	1236	220.27541893865	89
0	1239	221.001033635246	90
0	1240	221.001033635246	91
0	1241	221.281570627921	90
0	1244	221.852461701184	91
0	1245	221.852461701184	92
0	1246	222	91
0	1248	222.27541893865	90
0	1251	222.701622313541	91
0	1252	222.701622313541	92
0	1253	223.281570627921	91
0	1256	223.67427265113	92
0	1257	223.67427265113	93
0	1258	224	92
0	1260	224.27541893865	91
0	1262	225.281570627921	90
0	1265	225.356691379925	91
0	1266	225.356691379925	92
0	1267	226	91
0	1269	226.27541893865	90
0	1272	226.484326549687	91
0	1273	226.484326549687	92
0	1274	227.281570627921	91
0	1277	227.773359655788	92
0	1278	227.773359655788	93
0	1279	228	92
0	1281	228.27541893865	91
0	1284	229.149047323572	92
0	1285	229.149047323572	93
0	1286	229.281570627921	92
0	1288	230	91
0	1291	230.232988455972	92
0	1292	230.232988455972	93
0	1293	230.27541893865	92
0	1296	230.564638056269	93
0	1297	230.564638056269	94
0	1299	230.891800185086	95
0	1300	230.891800185086	96
0	1301	231.281570627921	95
0	1303	232	94
0	1306	232.103683841548	95
0	1307	232.103683841548	96
0	1308	232.27541893865	95
0	1310	233.281570627921	94
0	1312	234	93
0	1315	234.017448099069	94
0	1316	234.017448099069	95
0	1317	234.27541893865	94
0	1319	235.281570627921	93
0	1321	236	92
0	1324	236.112608350765	93
0	1325	236.112608350765	94
0	1326	236.27541893865	93
0	1328	237.281570627921	92
0	1331	237.489987181774	93
0	1332	237.489987181774	94
0	1333	238	93
0	1335	238.27541893865	92
0	1337	239.281570627921	91
0	1340	239.411839391725	92
0	1341	239.411839391725	93
0	1342	240	92
0	1344	240.27541893865	91
0	1347	240.782922395307	92
0	1348	240.782922395307	93
0	1350	240.78778224528	94
0	1351	240.78778224528	95
0	1353	241.119362045177	96
0	1354	241.119362045177	97
0	1355	241.281570627921	96
0	1357	242	95
0	1360	242.254613926327	96
0	1361	242.254613926327	97
0	1362	242.27541893865	96
0	1364	243.281570627921	95
0	1366	244	94
0	1368	244.27541893865	93
0	1371	244.406885058649	94
0	1372	244.406885058649	95
0	1374	244.69533598668	96
0	1375	244.69533598668	97
0	1376	245.281570627921	96
0	1379	245.567950416307	97
0	1380	245.567950416307	98
0	1381	246	97
0	1384	246.036002207849	98
0	1385	246.036002207849	99
0	1386	246.27541893865	98
0	1388	247.281570627921	97
0	1390	248	96
0	1393	248.120165520562	97
0	1394	248.120165520562	98
0	1395	248.27541893865	97
0	1397	249.281570627921	96
0	1400	249.526111989489	97
0	1401	249.526111989489	98
0	1402	250	97
0	1405	250.05417021558	98
0	1406	250.05417021558	99
0	1407	250.27541893865	98
0	1409	251.281570627921	97
0	1412	251.521595049918	98
0	1413	251.521595049918	99
0	1415	251.886417373573	100
0	1416	251.886417373573	101
0	1417	252	100
0	1419	252.27541893865	99
0	1422	252.330437064938	100
0	1423	252.330437064938	101
0	1424	253.281570627921	100
0	1427	253.416054021233	101
0	1428	253.416054021233	102
0	1429	254	101
0	1431	254.27541893865	100
0	1434	254.860999216616	101
0	1435	254.860999216616	102
0	1436	255.281570627921	101
0	1438	256	100
0	1441	256.210532450888	101
0	1442	256.210532450888	102
0	1443	256.27541893865	101
0	1446	257.027377063916	102
0	1447	257.027377063916	103
0	1448	257.281570627921	102
0	1451	257.603521004276	103
0	1452	257.603521004276	104
0	1454	257.752436230973	105
0	1455	257.752436230973	106
0	1456	258	105
0	1458	258.27541893865	104
0	1461	259.231190127684	105
0	1462	259.231190127684	106
0	1463	259.281570627921	105
0	1465	260	104
0	1467	260.27541893865	103
0	1470	260.50444436796	104
0	1471	260.50444436796	105
0	1472	261.281570627921	104
0	1475	261.658346238621	105
0	1476	261.658346238621	106
0	1477	262	105
0	1479	262.27541893865	104
0	1481	263.281570627921	103
0	1484	263.526108346119	104
0	1485	263.526108346119	105
0	1486	264	104
0	1488	264.27541893865	103
0	1491	264.585954086503	104
0	1492	264.585954086503	105
0	1493	265.281570627921	104
0	1496	265.848458325292	105
0	1497	265.848458325292	106
0	1498	266	105
0	1500	266.27541893865	104
0	1503	266.428267386677	105
0	1504	266.428267386677	106
0	1505	267.281570627921	105
0	1508	267.402310430587	106
0	1509	267.402310430587	107
0	1510	268	106
0	1513	268.158097752442	107
0	1514	268.158097752442	108
0	1515	268.27541893865	107
0	1518	268.561331489873	108
0	1519	268.561331489873	109
0	1521	268.811739533061	110
0	1522	268.811739533061	111
0	1523	269.281570627921	110
0	1526	269.764872508503	111
0	1527	269.764872508503	112
0	1528	270	111
0	1531	270.127135255005	112
0	1532	270.127135255005	113
0	1533	270.27541893865	112
0	1536	270.710060601063	113
0	1537	270.710060601063	114
0	1538	271.281570627921	113
0	1541	271.498796445636	114
0	1542	271.498796445636	115
0	1544	271.966651338189	116
0	1545	271.966651338189	117
0	1546	272	116
0	1548	272.27541893865	115
0	1550	273.281570627921	114
0	1553	273.678700153871	115
0	1554	273.678700153871	116
0	1555	274	115
0	1557	274.27541893865	114
0	1560	275.043591027111	115
0	1561	275.043591027111	116
0	1562	275.281570627921	115
0	1564	276	114
0	1566	276.27541893865	113
0	1569	276.438505185086	114
0	1570	276.438505185086	115
0	1572	277.013022378866	116
0	1573	277.013022378866	117
0	1574	277.281570627921	116
0	1576	278	115
0	1578	278.27541893865	114
0	1581	278.341794741732	115
0	1582	278.341794741732	116
0	1583	279.281570627921	115
0	1586	279.712283048496	116
0	1587	279.712283048496	117
0	1588	280	116
0	1590	280.27541893865	115
0	1593	280.594569604316	116
0	1594	280.594569604316	117
0	1595	281.281570627921	116
0	1598	281.698674225196	117
0	1599	281.698674225196	118
0	1601	281.844761494565	119
0	1602	281.844761494565	120
0	1603	282	119
0	1605	282.27541893865	118
0	1607	283.281570627921	117
0	1609	284	116
0	1612	284.010433245487	117
0	1613	284.010433245487	118
0	1614	284.27541893865	117
0	1617	285.164658845294	118
0	1618	285.164658845294	119
0	1619	285.281570627921	118
0	1622	285.881338338132	119
0	1623	285.881338338132	120
0	1624	286	119
0	1626	286.27541893865	118
0	1629	286.801402053867	119
0	1630	286.801402053867	120
0	1631	287.281570627921	119
0	1634	287.499680552454	120
0	1635	287.499680552454	121
0	1636	288	120
0	1639	288.238015139467	121
0	1640	288.238015139467	122
0	1641	288.27541893865	121
0	1644	289.031701787189	122
0	1645	289.031701787189	123
0	1646	289.281570627921	122
0	1648	290	121
0	1650	290.27541893865	120
0	1653	290.834109681139	121
0	1654	290.834109681139	122
0	1655	291.281570627921	121
0	1658	291.320816655101	122
0	1659	291.320816655101	123
0	1660	292	122
0	1662	292.27541893865	121
0	1665	293.166220069945	122
0	1666	293.166220069945	123
0	1667	293.281570627921	122
0	1669	294	121
0	1671	294.27541893865	120
0	1674	294.603568333822	121
0	1675	294.603568333822	122
0	1677	294.966519170645	123
0	1678	294.966519170645	124
0	1679	295.281570627921	123
0	1682	295.803691031789	124
0	1683	295.803691031789	125
0	1684	296	124
0	1686	296.27541893865	123
0	1689	296.732688818103	124
0	1690	296.732688818103	125
0	1692	297.067045224303	126
0	1693	297.067045224303	127
0	1694	297.281570627921	126
0	1696	298	125
0	1698	298.27541893865	124
0	1701	298.611397311007	125
0	1702	298.611397311007	126
0	1703	299.281570627921	125
0	1706	299.525102054118	126
0	1707	299.525102054118	127
0	1709	299.993796126624	128
0	1710	299.993796126624	129
0	1711	300	128
0	1713	300.27541893865	127
0	1716	300.399245592113	128
0	1717	300.399245592113	129
0	1718	301.281570627921	128
0	1721	301.487047750989	129
0	1722	301.487047750989	130
0	1723	302	129
0	1726	302.051878717399	130
0	1727	302.051878717399	131
0	1728	302.27541893865	130
0	1730	303.281570627921	129
0	1733	303.983261219541	130
0	1734	303.983261219541	131
0	1735	304	130
0	1737	304.27541893865	129
0	1740	304.802648937477	130
0	1741	304.802648937477	131
0	1742	305.281570627921	130
0	1745	305.731608097499	131
0	1746	305.731608097499	132
0	1748	305.929691431504	133
0	1749	305.929691431504	134
0	1750	306	133
0	1752	306.27541893865	132
0	1755	307.157633920384	133
0	1756	307.157633920384	134
0	1757	307.281570627921	133
0	1760	307.792762124194	134
0	1761	307.792762124194	135
0	1762	308	134
0	1764	308.27541893865	133
0	1766	309.281570627921	132
0	1769	309.638940714155	133
0	1770	309.638940714155	134
0	1771	310	133
0	1773	310.27541893865	132
0	1776	310.929174929759	133
0	1777	310.929174929759	134
0	1778	311.281570627921	133
0	1781	311.775530142165	134
0	1782	311.775530142165	135
0	1783	312	134
0	1785	312.27541893865	133
0	1787	313.281570627921	132
0	1790	313.742212961541	133
0	1791	313.742212961541	134
0	1792	314	133
0	1794	314.27541893865	132
0	1796	315.281570627921	131
0	1799	315.284474389274	132
0	1800	315.284474389274	133
0	1802	315.760838547602	134
0	1803	315.760838547602	135
0	1804	316	134
0	1806	316.27541893865	133
0	1809	316.364599783212	134
0	1810	316.364599783212	135
0	1811	317.281570627921	134
0	1813	318	133
0	1815	318.27541893865	132
0	1818	319.039423802872	133
0	1819	319.039423802872	134
0	1820	319.281570627921	133
0	1823	319.939363290192	134
0	1824	319.939363290192	135
0	1825	320	134
0	1827	320.27541893865	133
0	1829	321.281570627921	132
0	1832	321.641063833654	133
0	1833	321.641063833654	134
0	1834	322	133
0	1836	322.27541893865	132
0	1838	323.281570627921	131
0	1841	323.640709522972	132
0	1842	323.640709522972	133
0	1843	324	132
0	1845	324.27541893865	131
0	1847	325.281570627921	130
0	1850	325.430009700739	131
0	1851	325.430009700739	132
0	1852	326	131
0	1854	326.27541893865	130
0	1857	326.409881529414	131
0	1858	326.409881529414	132
0	1860	326.95302498125	133
0	1861	326.95302498125	134
0	1862	327.281570627921	133
0	1864	328	132
0	1866	328.27541893865	131
0	1869	329.006986762016	132
0	1870	329.006986762016	133
0	1872	329.208542999507	134
0	1873	329.208542999507	135
0	1874	329.281570627921	134
0	1876	330	133
0	1878	330.27541893865	132
0	1881	330.87655504898	133
0	1882	330.87655504898	134
0	1883	331.281570627921	133
0	1885	332	132
0	1887	332.27541893865	131
0	1890	332.941556115419	132
0	1891	332.941556115419	133
0	1892	333.281570627921	132
0	1894	334	131
0	1896	334.27541893865	130
0	1899	334.324944868464	131
0	1900	334.324944868464	132
0	1901	335.281570627921	131
0	1903	336	130
0	1906	336.013021619861	131
0	1907	336.013021619861	132
0	1908	336.27541893865	131
0	1911	336.685042058179	132
0	1912	336.685042058179	133
0	1913	337.281570627921	132
0	1916	337.721864415759	133
0	1917	337.721864415759	134
0	1918	338	133
0	1920	338.27541893865	132
0	1923	338.305423059488	133
0	1924	338.305423059488	134
0	1925	339.281570627921	133
0	1928	339.290397913566	134
0	1929	339.290397913566	135
0	1930	340	134
0	1933	340.008061204799	135
0	1934	340.008061204799	136
0	1935	340.27541893865	135
0	1937	341.281570627921	134
0	1940	341.395589339602	135
0	1941	341.395589339602	136
0	1943	341.812801099903	137
0	1944	341.812801099903	138
0	1945	342	137
0	1948	342.149802416213	138
0	1949	342.149802416213	139
0	1950	342.27541893865	138
0	1952	343.281570627921	137
0	1955	343.515964957725	138
0	1956	343.515964957725	139
0	1957	344	138
0	1959	344.27541893865	137
0	1962	344.403866742454	138
0	1963	344.403866742454	139
0	1964	345.281570627921	138
0	1967	345.347733929732	139
0	1968	345.347733929732	140
0	1969	346	139
0	1971	346.27541893865	138
0	1974	347.047918796163	139
0	1975	347.047918796163	140
0	1976	347.281570627921	139
0	1978	348	138
0	1980	348.27541893865	137
0	1983	348.680380715261	138
0	1984	348.680380715261	139
0	1986	349.117524462687	140
0	1987	349.117524462687	141
0	1988	349.281570627921	140
0	1991	349.727425946973	141
0	1992	349.727425946973	142
0	1993	350	141
0	1996	350.157886438575	142
0	1997	350.157886438575	143
0	1998	350.27541893865	142
0	2001	351.035694990988	143
0	2002	351.035694990988	144
0	2003	351.281570627921	143
0	2005	352	142
0	2008	352.143411321399	143
0	2009	352.143411321399	144
0	2010	352.27541893865	143