version 3
run MMc-31-20221127-11:38:41-21264
attr configname MMc
attr datetime 20221127-11:38:41
attr datetimef 20221127-113841
attr experiment MMc
attr inifile omnetpp.ini
attr iterationvars "$mean=uniform(0.5s, 1.5s), $dev=0.5*(uniform(0.5s, 1.5s)), $time=2.0, $num=3, $0=33434, $1=56673, $2=23567"
attr iterationvarsd mean=uniform(0.5s,_1.5s)/dev=0.5#2a(uniform(0.5s,_1.5s))/time=2.0/num=3/33434/56673/23567
attr iterationvarsf mean=uniform(0.5s,_1.5s),dev=0.5#2a(uniform(0.5s,_1.5s)),time=2.0,num=3,33434,56673,23567-
attr measurement "$mean=uniform(0.5s, 1.5s), $dev=0.5*(uniform(0.5s, 1.5s)), $time=2.0, $num=3, $0=33434, $1=56673, $2=23567"
attr network MMc
attr processid 21264
attr repetition 3
attr replication #3
attr resultdir results
attr runnumber 31
attr seedset 31
itervar dev "0.5*(uniform(0.5s, 1.5s))"
itervar mean "uniform(0.5s, 1.5s)"
itervar num 3
itervar time 2.0
config description "MMc module"
config network MMc
config MMc.source.interArrivalTime "truncnormal(uniform(0.5s, 1.5s), 0.5*(uniform(0.5s, 1.5s)))"
config MMc.mmc.serviceTime 2.0s
config MMc.mmc.c 3
config MMc.mmc.capacity 10000
config record-eventlog false
config **.scalar-recording true
config **.vector-recording true
config repeat 4
config seed-1-mt 33434
config seed-2-mt 56673
config seed-3-mt 23567
config output-vector-file MMc-3-2.0-results/3.vec
config output-scalar-file MMc-3-2.0-results/3.sca

vector 0 MMc.mmc queueLength:vector ETV
attr interpolationmode none
attr recordingmode vector
attr title "queue length"
vector 1 MMc.mmc util:vector ETV
attr interpolationmode none
attr recordingmode vector
attr title resources
0	0	0	0
0	6	10.493569117521	1
0	8	10.772827936253	2
0	9	10.772827936253	3
0	11	11.523550329678	4
0	12	11.523550329678	5
0	13	12	4
0	14	12	3
0	17	12.493569117521	2
0	20	13.17809874515	3
0	21	13.17809874515	4
0	22	14	3
0	23	14	2
0	27	14.390932352574	3
0	28	14.390932352574	4
0	29	14.493569117521	3
0	32	15.013477577786	4
0	33	15.013477577786	5
0	35	15.926008040934	6
0	36	15.926008040934	7
0	37	16	6
0	38	16	5
0	41	16.493569117521	4
0	44	17.181543982315	5
0	45	17.181543982315	6
0	47	17.443593217667	7
0	48	17.443593217667	8
0	49	18	7
0	50	18	6
0	53	18.493569117521	5
0	56	19.264149600764	6
0	57	19.264149600764	7
0	59	19.472373857261	8
0	60	19.472373857261	9
0	61	20	8
0	62	20	7
0	65	20.493569117521	6
0	68	20.906199914439	7
0	69	20.906199914439	8
0	70	22	7
0	71	22	6
0	75	22.077126614438	7
0	76	22.077126614438	8
0	77	22.493569117521	7
0	80	23.858014612435	8
0	81	23.858014612435	9
0	82	24	8
0	83	24	7
0	87	24.074330946274	8
0	88	24.074330946274	9
0	89	24.493569117521	8
0	92	24.578879481078	9
0	93	24.578879481078	10
0	95	25.919804571822	11
0	96	25.919804571822	12
0	97	26	11
0	98	26	10
0	102	26.081651869741	11
0	103	26.081651869741	12
0	104	26.493569117521	11
0	107	26.550672867933	12
0	108	26.550672867933	13
0	110	27.187091004849	14
0	111	27.187091004849	15
0	112	28	14
0	113	28	13
0	116	28.493569117521	12
0	119	28.505636814285	13
0	120	28.505636814285	14
0	121	30	13
0	122	30	12
0	126	30.187447740991	13
0	127	30.187447740991	14
0	128	30.493569117521	13
0	131	31.92950765154	14
0	132	31.92950765154	15
0	133	32	14
0	134	32	13
0	138	32.257567437014	14
0	139	32.257567437014	15
0	140	32.493569117521	14
0	143	32.940021993267	15
0	144	32.940021993267	16
0	146	33.77586508023	17
0	147	33.77586508023	18
0	148	34	17
0	149	34	16
0	153	34.035222384347	17
0	154	34.035222384347	18
0	155	34.493569117521	17
0	158	34.884770929398	18
0	159	34.884770929398	19
0	161	35.082386892521	20
0	162	35.082386892521	21
0	163	36	20
0	164	36	19
0	168	36.465363778945	20
0	169	36.465363778945	21
0	170	36.493569117521	20
0	173	37.644406667741	21
0	174	37.644406667741	22
0	175	38	21
0	176	38	20
0	180	38.364495933357	21
0	181	38.364495933357	22
0	182	38.493569117521	21
0	185	39.074462157357	22
0	186	39.074462157357	23
0	187	40	22
0	188	40	21
0	192	40.05660573877	22
0	193	40.05660573877	23
0	194	40.493569117521	22
0	197	40.636894723133	23
0	198	40.636894723133	24
0	200	41.151103035413	25
0	201	41.151103035413	26
0	202	42	25
0	203	42	24
0	206	42.493569117521	23
0	209	42.597482467396	24
0	210	42.597482467396	25
0	212	43.499964090863	26
0	213	43.499964090863	27
0	214	44	26
0	215	44	25
0	218	44.493569117521	24
0	221	44.632904577319	25
0	222	44.632904577319	26
0	224	45.130339297461	27
0	225	45.130339297461	28
0	226	46	27
0	227	46	26
0	231	46.035716437278	27
0	232	46.035716437278	28
0	233	46.493569117521	27
0	236	46.990490840486	28
0	237	46.990490840486	29
0	239	47.837292444862	30
0	240	47.837292444862	31
0	241	48	30
0	242	48	29
0	245	48.493569117521	28
0	248	49.0242352639	29
0	249	49.0242352639	30
0	251	49.184121193307	31
0	252	49.184121193307	32
0	254	49.746614632344	33
0	255	49.746614632344	34
0	256	50	33
0	257	50	32
0	260	50.493569117521	31
0	263	51.181973302138	32
0	264	51.181973302138	33
0	266	51.987810834759	34
0	267	51.987810834759	35
0	268	52	34
0	269	52	33
0	272	52.493569117521	32
0	275	52.852356022087	33
0	276	52.852356022087	34
0	277	54	33
0	278	54	32
0	282	54.340681565469	33
0	283	54.340681565469	34
0	284	54.493569117521	33
0	286	56	32
0	287	56	31
0	291	56.155184930165	32
0	292	56.155184930165	33
0	293	56.493569117521	32
0	296	57.138906013212	33
0	297	57.138906013212	34
0	299	57.811672369843	35
0	300	57.811672369843	36
0	301	58	35
0	302	58	34
0	306	58.084445153985	35
0	307	58.084445153985	36
0	308	58.493569117521	35
0	311	59.669318559275	36
0	312	59.669318559275	37
0	313	60	36
0	314	60	35
0	317	60.493569117521	34
0	320	61.092128474524	35
0	321	61.092128474524	36
0	322	62	35
0	323	62	34
0	327	62.42040287457	35
0	328	62.42040287457	36
0	329	62.493569117521	35
0	332	62.968874621906	36
0	333	62.968874621906	37
0	334	64	36
0	335	64	35
0	339	64.056619598299	36
0	340	64.056619598299	37
0	341	64.493569117521	36
0	344	65.253371905545	37
0	345	65.253371905545	38
0	346	66	37
0	347	66	36
0	351	66.140225158022	37
0	352	66.140225158022	38
0	353	66.493569117521	37
0	356	66.995752113675	38
0	357	66.995752113675	39
0	358	68	38
0	359	68	37
0	363	68.145077848568	38
0	364	68.145077848568	39
0	365	68.493569117521	38
0	368	69.059610901105	39
0	369	69.059610901105	40
0	370	70	39
0	371	70	38
0	375	70.032842093261	39
0	376	70.032842093261	40
0	377	70.493569117521	39
0	380	71.182794851817	40
0	381	71.182794851817	41
0	382	72	40
0	383	72	39
0	387	72.134031554406	40
0	388	72.134031554406	41
0	389	72.493569117521	40
0	392	73.432493208509	41
0	393	73.432493208509	42
0	394	74	41
0	395	74	40
0	398	74.493569117521	39
0	401	74.841465385242	40
0	402	74.841465385242	41
0	404	75.124572576989	42
0	405	75.124572576989	43
0	406	76	42
0	407	76	41
0	410	76.493569117521	40
0	413	76.792427860669	41
0	414	76.792427860669	42
0	416	77.111555731762	43
0	417	77.111555731762	44
0	418	78	43
0	419	78	42
0	422	78.493569117521	41
0	425	78.559933017638	42
0	426	78.559933017638	43
0	428	79.972257747035	44
0	429	79.972257747035	45
0	430	80	44
0	431	80	43
0	435	80.208146229958	44
0	436	80.208146229958	45
0	437	80.493569117521	44
0	440	81.105332527674	45
0	441	81.105332527674	46
0	443	81.738676965616	47
0	444	81.738676965616	48
0	445	82	47
0	446	82	46
0	449	82.493569117521	45
0	452	83.318624329774	46
0	453	83.318624329774	47
0	455	83.666904054481	48
0	456	83.666904054481	49
0	457	84	48
0	458	84	47
0	461	84.493569117521	46
0	464	85.75914195905	47
0	465	85.75914195905	48
0	466	86	47
0	467	86	46
0	470	86.493569117521	45
0	472	88	44
0	473	88	43
0	477	88.045299379512	44
0	478	88.045299379512	45
0	479	88.493569117521	44
0	482	89.029812760978	45
0	483	89.029812760978	46
0	485	89.720394409489	47
0	486	89.720394409489	48
0	488	89.750509500494	49
0	489	89.750509500494	50
0	490	90	49
0	491	90	48
0	494	90.493569117521	47
0	497	90.497333381588	48
0	498	90.497333381588	49
0	500	91.018220543497	50
0	501	91.018220543497	51
0	503	91.593596628553	52
0	504	91.593596628553	53
0	506	91.987204739494	54
0	507	91.987204739494	55
0	508	92	54
0	509	92	53
0	513	92.271002106686	54
0	514	92.271002106686	55
0	516	92.486849287543	56
0	517	92.486849287543	57
0	518	92.493569117521	56
0	520	94	55
0	521	94	54
0	525	94.064831052099	55
0	526	94.064831052099	56
0	528	94.449837748685	57
0	529	94.449837748685	58
0	530	94.493569117521	57
0	533	95.261854170345	58
0	534	95.261854170345	59
0	535	96	58
0	536	96	57
0	539	96.493569117521	56
0	542	97.08289952944	57
0	543	97.08289952944	58
0	545	97.954500391298	59
0	546	97.954500391298	60
0	547	98	59
0	548	98	58
0	552	98.408019582134	59
0	553	98.408019582134	60
0	554	98.493569117521	59
0	556	100	58
0	557	100	57
0	560	100.493569117521	56
0	563	100.922233315257	57
0	564	100.922233315257	58
0	565	102	57
0	566	102	56
0	570	102.139566065459	57
0	571	102.139566065459	58
0	572	102.493569117521	57
0	575	102.816175210198	58
0	576	102.816175210198	59
0	578	103.418680883903	60
0	579	103.418680883903	61
0	580	104	60
0	581	104	59
0	585	104.042565328951	60
0	586	104.042565328951	61
0	588	104.309220392354	62
0	589	104.309220392354	63
0	590	104.493569117521	62
0	593	104.796007597076	63
0	594	104.796007597076	64
0	595	106	63
0	596	106	62
0	600	106.027615103141	63
0	601	106.027615103141	64
0	602	106.493569117521	63
0	605	106.821590433335	64
0	606	106.821590433335	65
0	608	107.943445110791	66
0	609	107.943445110791	67
0	610	108	66
0	611	108	65
0	614	108.493569117521	64
0	617	109.838175766607	65
0	618	109.838175766607	66
0	619	110	65
0	620	110	64
0	623	110.493569117521	63
0	626	111.938446287833	64
0	627	111.938446287833	65
0	628	112	64
0	629	112	63
0	632	112.493569117521	62
0	635	113.562563051908	63
0	636	113.562563051908	64
0	637	114	63
0	638	114	62
0	641	114.493569117521	61
0	644	114.90585297015	62
0	645	114.90585297015	63
0	647	115.38165372972	64
0	648	115.38165372972	65
0	649	116	64
0	650	116	63
0	654	116.257458999553	64
0	655	116.257458999553	65
0	656	116.493569117521	64
0	659	117.390711769597	65
0	660	117.390711769597	66
0	661	118	65
0	662	118	64
0	666	118.254654050119	65
0	667	118.254654050119	66
0	668	118.493569117521	65
0	671	118.530132084849	66
0	672	118.530132084849	67
0	674	119.908976094885	68
0	675	119.908976094885	69
0	676	120	68
0	677	120	67
0	681	120.226194369376	68
0	682	120.226194369376	69
0	683	120.493569117521	68
0	686	120.547345495737	69
0	687	120.547345495737	70
0	689	121.414631367847	71
0	690	121.414631367847	72
0	691	122	71
0	692	122	70
0	695	122.493569117521	69
0	698	122.52814298085	70
0	699	122.52814298085	71
0	700	124	70
0	701	124	69
0	705	124.28733668474	70
0	706	124.28733668474	71
0	707	124.493569117521	70
0	710	125.790360089543	71
0	711	125.790360089543	72
0	712	126	71
0	713	126	70
0	716	126.493569117521	69
0	719	126.700708939097	70
0	720	126.700708939097	71
0	722	127.701086648266	72
0	723	127.701086648266	73
0	724	128	72
0	725	128	71
0	728	128.493569117521	70
0	731	128.962863377104	71
0	732	128.962863377104	72
0	734	129.447762345668	73
0	735	129.447762345668	74
0	736	130	73
0	737	130	72
0	741	130.25431174109	73
0	742	130.25431174109	74
0	743	130.493569117521	73
0	745	132	72
0	746	132	71
0	750	132.154261861116	72
0	751	132.154261861116	73
0	752	132.493569117521	72
0	755	132.841533864201	73
0	756	132.841533864201	74
0	757	134	73
0	758	134	72
0	762	134.431330804898	73
0	763	134.431330804898	74
0	764	134.493569117521	73
0	766	136	72
0	767	136	71
0	771	136.318022851679	72
0	772	136.318022851679	73
0	773	136.493569117521	72
0	776	136.705399445477	73
0	777	136.705399445477	74
0	779	137.765688703261	75
0	780	137.765688703261	76
0	781	138	75
0	782	138	74
0	786	138.131055528506	75
0	787	138.131055528506	76
0	788	138.493569117521	75
0	791	139.766706871156	76
0	792	139.766706871156	77
0	793	140	76
0	794	140	75
0	798	140.483708162769	76
0	799	140.483708162769	77
0	800	140.493569117521	76
0	802	142	75
0	803	142	74
0	807	142.085247233102	75
0	808	142.085247233102	76
0	809	142.493569117521	75
0	812	143.079026814508	76
0	813	143.079026814508	77
0	815	143.678118778599	78
0	816	143.678118778599	79
0	817	144	78
0	818	144	77
0	821	144.493569117521	76
0	824	145.165933098842	77
0	825	145.165933098842	78
0	826	146	77
0	827	146	76
0	831	146.36957742795	77
0	832	146.36957742795	78
0	833	146.493569117521	77
0	836	147.843474316007	78
0	837	147.843474316007	79
0	838	148	78
0	839	148	77
0	842	148.493569117521	76
0	845	149.074366260766	77
0	846	149.074366260766	78
0	848	149.178541874944	79
0	849	149.178541874944	80
0	850	150	79
0	851	150	78
0	854	150.493569117521	77
0	857	151.016180148003	78
0	858	151.016180148003	79
0	859	152	78
0	860	152	77
0	864	152.338599957695	78
0	865	152.338599957695	79
0	866	152.493569117521	78
0	869	152.687053191489	79
0	870	152.687053191489	80
0	872	153.503471328373	81
0	873	153.503471328373	82
0	874	154	81
0	875	154	80
0	878	154.493569117521	79
0	881	155.024710080047	80
0	882	155.024710080047	81
0	883	156	80
0	884	156	79
0	887	156.493569117521	78
0	890	156.676356279925	79
0	891	156.676356279925	80
0	893	157.594046983742	81
0	894	157.594046983742	82
0	895	158	81
0	896	158	80
0	900	158.24203512936	81
0	901	158.24203512936	82
0	902	158.493569117521	81
0	905	158.676172889894	82
0	906	158.676172889894	83
0	907	160	82
0	908	160	81
0	912	160.215284379617	82
0	913	160.215284379617	83
0	914	160.493569117521	82
0	917	161.043636710818	83
0	918	161.043636710818	84
0	920	161.186443411881	85
0	921	161.186443411881	86
0	922	162	85
0	923	162	84
0	927	162.235687079448	85
0	928	162.235687079448	86
0	929	162.493569117521	85
0	932	163.534853518777	86
0	933	163.534853518777	87
0	934	164	86
0	935	164	85
0	939	164.400643164733	86
0	940	164.400643164733	87
0	942	164.441754522138	88
0	943	164.441754522138	89
0	944	164.493569117521	88
0	947	165.348080726464	89
0	948	165.348080726464	90
0	949	166	89
0	950	166	88
0	953	166.493569117521	87
0	956	167.01922414395	88
0	957	167.01922414395	89
0	958	168	88
0	959	168	87
0	962	168.493569117521	86
0	965	168.657751994011	87
0	966	168.657751994011	88
0	968	169.908566727418	89
0	969	169.908566727418	90
0	970	170	89
0	971	170	88
0	974	170.493569117521	87
0	977	171.172170181951	88
0	978	171.172170181951	89
0	980	171.934101108747	90
0	981	171.934101108747	91
0	982	172	90
0	983	172	89
0	987	172.472132262728	90
0	988	172.472132262728	91
0	989	172.493569117521	90
0	992	173.332161712198	91
0	993	173.332161712198	92
0	994	174	91
0	995	174	90
0	999	174.385827745881	91
0	1000	174.385827745881	92
0	1001	174.493569117521	91
0	1004	175.224853975546	92
0	1005	175.224853975546	93
0	1006	176	92
0	1007	176	91
0	1011	176.074451197719	92
0	1012	176.074451197719	93
0	1013	176.493569117521	92
0	1016	177.350955187284	93
0	1017	177.350955187284	94
0	1018	178	93
0	1019	178	92
0	1022	178.493569117521	91
0	1025	178.723599847486	92
0	1026	178.723599847486	93
0	1027	180	92
0	1028	180	91
0	1031	180.493569117521	90
0	1034	181.00941761671	91
0	1035	181.00941761671	92
0	1037	181.86677940438	93
0	1038	181.86677940438	94
0	1039	182	93
0	1040	182	92
0	1043	182.493569117521	91
0	1046	182.681430513611	92
0	1047	182.681430513611	93
0	1049	183.056916776831	94
0	1050	183.056916776831	95
0	1052	183.448448711768	96
0	1053	183.448448711768	97
0	1054	184	96
0	1055	184	95
0	1058	184.493569117521	94
0	1061	184.578392387343	95
0	1062	184.578392387343	96
0	1064	185.323517518068	97
0	1065	185.323517518068	98
0	1066	186	97
0	1067	186	96
0	1070	186.493569117521	95
0	1073	186.696440232233	96
0	1074	186.696440232233	97
0	1076	187.812773661188	98
0	1077	187.812773661188	99
0	1078	188	98
0	1079	188	97
0	1082	188.493569117521	96
0	1085	189.531240455038	97
0	1086	189.531240455038	98
0	1087	190	97
0	1088	190	96
0	1091	190.493569117521	95
0	1094	190.589567297639	96
0	1095	190.589567297639	97
0	1097	191.619996965388	98
0	1098	191.619996965388	99
0	1100	191.626111429816	100
0	1101	191.626111429816	101
0	1102	192	100
0	1103	192	99
0	1106	192.493569117521	98
0	1109	192.732968845235	99
0	1110	192.732968845235	100
0	1111	194	99
0	1112	194	98
0	1116	194.182279447111	99
0	1117	194.182279447111	100
0	1118	194.493569117521	99
0	1121	194.790759107601	100
0	1122	194.790759107601	101
0	1123	196	100
0	1124	196	99
0	1127	196.493569117521	98
0	1130	196.696755369755	99
0	1131	196.696755369755	100
0	1133	197.813350774839	101
0	1134	197.813350774839	102
0	1135	198	101
0	1136	198	100
0	1140	198.407207017	101
0	1141	198.407207017	102
0	1142	198.493569117521	101
0	1145	199.783886442644	102
0	1146	199.783886442644	103
0	1147	200	102
0	1148	200	101
0	1151	200.493569117521	100
0	1154	200.64762648143	101
0	1155	200.64762648143	102
0	1157	201.180002022392	103
0	1158	201.180002022392	104
0	1159	202	103
0	1160	202	102
0	1163	202.493569117521	101
0	1166	203.31865384056	102
0	1167	203.31865384056	103
0	1168	204	102
0	1169	204	101
0	1173	204.317255499078	102
0	1174	204.317255499078	103
0	1175	204.493569117521	102
0	1178	205.707918792965	103
0	1179	205.707918792965	104
0	1180	206	103
0	1181	206	102
0	1184	206.493569117521	101
0	1187	207.004883098514	102
0	1188	207.004883098514	103
0	1189	208	102
0	1190	208	101
0	1193	208.493569117521	100
0	1196	209.057096164403	101
0	1197	209.057096164403	102
0	1199	209.416839513358	103
0	1200	209.416839513358	104
0	1202	209.858715578374	105
0	1203	209.858715578374	106
0	1204	210	105
0	1205	210	104
0	1208	210.493569117521	103
0	1211	210.578050446161	104
0	1212	210.578050446161	105
0	1214	210.83660518843	106
0	1215	210.83660518843	107
0	1217	211.508987864064	108
0	1218	211.508987864064	109
0	1219	212	108
0	1220	212	107
0	1223	212.493569117521	106
0	1226	213.483369435816	107
0	1227	213.483369435816	108
0	1228	214	107
0	1229	214	106
0	1232	214.493569117521	105
0	1235	214.865652534908	106
0	1236	214.865652534908	107
0	1237	216	106
0	1238	216	105
0	1241	216.493569117521	104
0	1244	217.405355882851	105
0	1245	217.405355882851	106
0	1246	218	105
0	1247	218	104
0	1251	218.110346234216	105
0	1252	218.110346234216	106
0	1253	218.493569117521	105
0	1256	219.611447546436	106
0	1257	219.611447546436	107
0	1258	220	106
0	1259	220	105
0	1262	220.493569117521	104
0	1265	220.657398977667	105
0	1266	220.657398977667	106
0	1268	221.160427592442	107
0	1269	221.160427592442	108
0	1270	222	107
0	1271	222	106
0	1275	222.005425751877	107
0	1276	222.005425751877	108
0	1277	222.493569117521	107
0	1280	223.472616421212	108
0	1281	223.472616421212	109
0	1282	224	108
0	1283	224	107
0	1286	224.493569117521	106
0	1289	225.668401101337	107
0	1290	225.668401101337	108
0	1291	226	107
0	1292	226	106
0	1296	226.040620974423	107
0	1297	226.040620974423	108
0	1299	226.466424216743	109
0	1300	226.466424216743	110
0	1301	226.493569117521	109
0	1303	228	108
0	1304	228	107
0	1308	228.079865612496	108
0	1309	228.079865612496	109
0	1310	228.493569117521	108
0	1313	229.281444803854	109
0	1314	229.281444803854	110
0	1315	230	109
0	1316	230	108
0	1320	230.044238917649	109
0	1321	230.044238917649	110
0	1322	230.493569117521	109
0	1325	230.877936764667	110
0	1326	230.877936764667	111
0	1328	231.895209678829	112
0	1329	231.895209678829	113
0	1330	232	112
0	1331	232	111
0	1334	232.493569117521	110
0	1337	233.353878009054	111
0	1338	233.353878009054	112
0	1339	234	111
0	1340	234	110
0	1344	234.387112224124	111
0	1345	234.387112224124	112
0	1346	234.493569117521	111
0	1349	235.713662441058	112
0	1350	235.713662441058	113
0	1351	236	112
0	1352	236	111
0	1355	236.493569117521	110
0	1358	236.518034872919	111
0	1359	236.518034872919	112
0	1361	236.97350134964	113
0	1362	236.97350134964	114
0	1363	238	113
0	1364	238	112
0	1367	238.493569117521	111
0	1370	238.504418869935	112
0	1371	238.504418869935	113
0	1373	239.574479131221	114
0	1374	239.574479131221	115
0	1376	239.928439757005	116
0	1377	239.928439757005	117
0	1378	240	116
0	1379	240	115
0	1382	240.493569117521	114
0	1385	240.51351197375	115
0	1386	240.51351197375	116
0	1387	242	115
0	1388	242	114
0	1392	242.028805509544	115
0	1393	242.028805509544	116
0	1394	242.493569117521	115
0	1397	242.667825876651	116
0	1398	242.667825876651	117
0	1400	243.135243487968	118
0	1401	243.135243487968	119
0	1403	243.687829834361	120
0	1404	243.687829834361	121
0	1405	244	120
0	1406	244	119
0	1409	244.493569117521	118
0	1412	244.653283836665	119
0	1413	244.653283836665	120
0	1414	246	119
0	1415	246	118
0	1418	246.493569117521	117
0	1421	246.581207934382	118
0	1422	246.581207934382	119
0	1423	248	118
0	1424	248	117
0	1428	248.145277520518	118
0	1429	248.145277520518	119
0	1430	248.493569117521	118
0	1433	249.154772879355	119
0	1434	249.154772879355	120
0	1435	250	119
0	1436	250	118
0	1439	250.493569117521	117
0	1442	250.93988112745	118
0	1443	250.93988112745	119
0	1444	252	118
0	1445	252	117
0	1449	252.20590086817	118
0	1450	252.20590086817	119
0	1451	252.493569117521	118
0	1454	252.997644331515	119
0	1455	252.997644331515	120
0	1457	253.922741488056	121
0	1458	253.922741488056	122
0	1459	254	121
0	1460	254	120
0	1464	254.346882604852	121
0	1465	254.346882604852	122
0	1466	254.493569117521	121
0	1469	255.161782244246	122
0	1470	255.161782244246	123
0	1472	255.932465355118	124
0	1473	255.932465355118	125
0	1474	256	124
0	1475	256	123
0	1479	256.101929060774	124
0	1480	256.101929060774	125
0	1481	256.493569117521	124
0	1484	256.956951634272	125
0	1485	256.956951634272	126
0	1486	258	125
0	1487	258	124
0	1491	258.407569342425	125
0	1492	258.407569342425	126
0	1493	258.493569117521	125
0	1496	258.680610382059	126
0	1497	258.680610382059	127
0	1499	259.937516051892	128
0	1500	259.937516051892	129
0	1501	260	128
0	1502	260	127
0	1505	260.493569117521	126
0	1508	261.00889275497	127
0	1509	261.00889275497	128
0	1510	262	127
0	1511	262	126
0	1515	262.104743812685	127
0	1516	262.104743812685	128
0	1518	262.41620645355	129
0	1519	262.41620645355	130
0	1520	262.493569117521	129
0	1523	262.884462608341	130
0	1524	262.884462608341	131
0	1526	263.144500813688	132
0	1527	263.144500813688	133
0	1528	264	132
0	1529	264	131
0	1532	264.493569117521	130
0	1534	266	129
0	1535	266	128
0	1539	266.192228470395	129
0	1540	266.192228470395	130
0	1541	266.493569117521	129
0	1544	267.447628794085	130
0	1545	267.447628794085	131
0	1547	267.918250366509	132
0	1548	267.918250366509	133
0	1549	268	132
0	1550	268	131
0	1553	268.493569117521	130
0	1555	270	129
0	1556	270	128
0	1560	270.026078528355	129
0	1561	270.026078528355	130
0	1562	270.493569117521	129
0	1565	271.269516604804	130
0	1566	271.269516604804	131
0	1567	272	130
0	1568	272	129
0	1571	272.493569117521	128
0	1574	272.981719738405	129
0	1575	272.981719738405	130
0	1577	273.888284562394	131
0	1578	273.888284562394	132
0	1579	274	131
0	1580	274	130
0	1583	274.493569117521	129
0	1586	275.349342739954	130
0	1587	275.349342739954	131
0	1589	275.621256616349	132
0	1590	275.621256616349	133
0	1591	276	132
0	1592	276	131
0	1596	276.181271872791	132
0	1597	276.181271872791	133
0	1598	276.493569117521	132
0	1601	277.465419313576	133
0	1602	277.465419313576	134
0	1603	278	133
0	1604	278	132
0	1607	278.493569117521	131
0	1610	278.884340662267	132
0	1611	278.884340662267	133
0	1613	279.200450385456	134
0	1614	279.200450385456	135
0	1615	280	134
0	1616	280	133
0	1619	280.493569117521	132
0	1622	281.088455480541	133
0	1623	281.088455480541	134
0	1624	282	133
0	1625	282	132
0	1628	282.493569117521	131
0	1631	282.939574235072	132
0	1632	282.939574235072	133
0	1633	284	132
0	1634	284	131
0	1637	284.493569117521	130
0	1640	285.484460303821	131
0	1641	285.484460303821	132
0	1643	285.537827570846	133
0	1644	285.537827570846	134
0	1645	286	133
0	1646	286	132
0	1649	286.493569117521	131
0	1652	287.063594254754	132
0	1653	287.063594254754	133
0	1654	288	132
0	1655	288	131
0	1659	288.464942237937	132
0	1660	288.464942237937	133
0	1661	288.493569117521	132
0	1663	290	131
0	1664	290	130
0	1668	290.059853084153	131
0	1669	290.059853084153	132
0	1670	290.493569117521	131
0	1673	291.507765390196	132
0	1674	291.507765390196	133
0	1675	292	132
0	1676	292	131
0	1680	292.144419804368	132
0	1681	292.144419804368	133
0	1683	292.377004336312	134
0	1684	292.377004336312	135
0	1685	292.493569117521	134
0	1687	294	133
0	1688	294	132
0	1691	294.493569117521	131
0	1694	295.238839908016	132
0	1695	295.238839908016	133
0	1696	296	132
0	1697	296	131
0	1700	296.493569117521	130
0	1703	297.112850025753	131
0	1704	297.112850025753	132
0	1705	298	131
0	1706	298	130
0	1709	298.493569117521	129
0	1712	298.681504536573	130
0	1713	298.681504536573	131
0	1715	298.942397242339	132
0	1716	298.942397242339	133
0	1717	300	132
0	1718	300	131
0	1722	300.145889429121	132
0	1723	300.145889429121	133
0	1724	300.493569117521	132
0	1727	301.498048497672	133
0	1728	301.498048497672	134
0	1729	302	133
0	1730	302	132
0	1733	302.493569117521	131
0	1736	302.723435541531	132
0	1737	302.723435541531	133
0	1739	303.551246982458	134
0	1740	303.551246982458	135
0	1741	304	134
0	1742	304	133
0	1745	304.493569117521	132
0	1748	304.522522096838	133
0	1749	304.522522096838	134
0	1751	305.21245651082	135
0	1752	305.21245651082	136
0	1753	306	135
0	1754	306	134
0	1757	306.493569117521	133
0	1760	306.838069542246	134
0	1761	306.838069542246	135
0	1763	307.825135447385	136
0	1764	307.825135447385	137
0	1765	308	136
0	1766	308	135
0	1769	308.493569117521	134
0	1772	308.682735216275	135
0	1773	308.682735216275	136
0	1775	309.69669543812	137
0	1776	309.69669543812	138
0	1777	310	137
0	1778	310	136
0	1782	310.325069304521	137
0	1783	310.325069304521	138
0	1784	310.493569117521	137
0	1787	311.51562155027	138
0	1788	311.51562155027	139
0	1789	312	138
0	1790	312	137
0	1793	312.493569117521	136
0	1796	313.517351362452	137
0	1797	313.517351362452	138
0	1798	314	137
0	1799	314	136
0	1803	314.316457203613	137
0	1804	314.316457203613	138
0	1805	314.493569117521	137
0	1808	314.591240936743	138
0	1809	314.591240936743	139
0	1811	315.233113896936	140
0	1812	315.233113896936	141
0	1813	316	140
0	1814	316	139
0	1818	316.349534318299	140
0	1819	316.349534318299	141
0	1820	316.493569117521	140
0	1822	318	139
0	1823	318	138
0	1827	318.333515971743	139
0	1828	318.333515971743	140
0	1829	318.493569117521	139
0	1832	319.287172985861	140
0	1833	319.287172985861	141
0	1835	319.848595127682	142
0	1836	319.848595127682	143
0	1837	320	142
0	1838	320	141
0	1841	320.493569117521	140
0	1844	321.225883059366	141
0	1845	321.225883059366	142
0	1846	322	141
0	1847	322	140
0	1850	322.493569117521	139
0	1853	322.847687576966	140
0	1854	322.847687576966	141
0	1856	323.95586863535	142
0	1857	323.95586863535	143
0	1858	324	142
0	1859	324	141
0	1862	324.493569117521	140
0	1865	325.168677809597	141
0	1866	325.168677809597	142
0	1867	326	141
0	1868	326	140
0	1871	326.493569117521	139
0	1874	326.871341649159	140
0	1875	326.871341649159	141
0	1876	328	140
0	1877	328	139
0	1880	328.493569117521	138
0	1883	328.87138505343	139
0	1884	328.87138505343	140
0	1886	329.38306952952	141
0	1887	329.38306952952	142
0	1889	329.575400308274	143
0	1890	329.575400308274	144
0	1891	330	143
0	1892	330	142
0	1895	330.493569117521	141
0	1898	330.639172352706	142
0	1899	330.639172352706	143
0	1900	332	142
0	1901	332	141
0	1904	332.493569117521	140
0	1907	333.193175551047	141
0	1908	333.193175551047	142
0	1909	334	141
0	1910	334	140
0	1913	334.493569117521	139
0	1916	334.902315520637	140
0	1917	334.902315520637	141
0	1919	335.110617451664	142
0	1920	335.110617451664	143
0	1921	336	142
0	1922	336	141
0	1925	336.493569117521	140
0	1928	337.372130505201	141
0	1929	337.372130505201	142
0	1930	338	141
0	1931	338	140
0	1935	338.429422311701	141
0	1936	338.429422311701	142
0	1937	338.493569117521	141
0	1940	339.782993912936	142
0	1941	339.782993912936	143
0	1942	340	142
0	1943	340	141
0	1946	340.493569117521	140
0	1949	341.21702266879	141
0	1950	341.21702266879	142
0	1952	341.511039834836	143
0	1953	341.511039834836	144
0	1954	342	143
0	1955	342	142
0	1958	342.493569117521	141
0	1961	343.296028134658	142
0	1962	343.296028134658	143
0	1963	344	142
0	1964	344	141
0	1968	344.31379025661	142
0	1969	344.31379025661	143
0	1970	344.493569117521	142
0	1973	344.645449781515	143
0	1974	344.645449781515	144
0	1975	346	143
0	1976	346	142
0	1980	346.036107757714	143
0	1981	346.036107757714	144
0	1982	346.493569117521	143
0	1985	347.113627565219	144
0	1986	347.113627565219	145
0	1987	348	144
0	1988	348	143
0	1992	348.281396574451	144
0	1993	348.281396574451	145
0	1994	348.493569117521	144
0	1997	348.975042039749	145
0	1998	348.975042039749	146
0	2000	349.936732123424	147
0	2001	349.936732123424	148
0	2002	350	147
0	2003	350	146
0	2006	350.493569117521	145
0	2009	351.274617049495	146
0	2010	351.274617049495	147
0	2011	352	146
0	2012	352	145
0	2016	352.041322224566	146
0	2017	352.041322224566	147
0	2018	352.493569117521	146
0	2021	353.948077526124	147
0	2022	353.948077526124	148
0	2023	354	147
0	2024	354	146
0	2027	354.493569117521	145
0	2030	355.036921024146	146
0	2031	355.036921024146	147
0	2033	355.381334274085	148
0	2034	355.381334274085	149
0	2035	356	148
0	2036	356	147
0	2040	356.069193786596	148
0	2041	356.069193786596	149
0	2042	356.493569117521	148
0	2045	357.767235421056	149
0	2046	357.767235421056	150
0	2047	358	149
0	2048	358	148
0	2052	358.461220988017	149
0	2053	358.461220988017	150
0	2054	358.493569117521	149
0	2057	359.97325214943	150
0	2058	359.97325214943	151
0	2059	360	150
0	2060	360	149
0	2063	360.493569117521	148
0	2066	360.593129373853	149
0	2067	360.593129373853	150
0	2069	361.629875723361	151
0	2070	361.629875723361	152
0	2071	362	151
0	2072	362	150
0	2075	362.493569117521	149
0	2078	362.897260967349	150
0	2079	362.897260967349	151
0	2080	364	150
0	2081	364	149
0	2084	364.493569117521	148
0	2087	364.515558682945	149
0	2088	364.515558682945	150
0	2090	364.752292318678	151
0	2091	364.752292318678	152
0	2092	366	151
0	2093	366	150
0	2097	366.487812388651	151
0	2098	366.487812388651	152
0	2099	366.493569117521	151
0	2101	368	150
0	2102	368	149
0	2106	368.142792224835	150
0	2107	368.142792224835	151
0	2108	368.493569117521	150
0	2111	369.342888425818	151
0	2112	369.342888425818	152
0	2113	370	151
0	2114	370	150
0	2117	370.493569117521	149
0	2120	371.309348926265	150
0	2121	371.309348926265	151
0	2122	372	150
0	2123	372	149
0	2126	372.493569117521	148
0	2129	373.674622325648	149
0	2130	373.674622325648	150
0	2132	373.869199750112	151
0	2133	373.869199750112	152
0	2134	374	151
0	2135	374	150
0	2138	374.493569117521	149
0	2141	375.099267535904	150
0	2142	375.099267535904	151
0	2144	375.715308670731	152