version 3
run k_MM1_lbqf-8-20221127-16:03:34-25264
attr configname k_MM1_lbqf
attr datetime 20221127-16:03:34
attr datetimef 20221127-160334
attr experiment k_MM1_lbqf
attr inifile omnetpp.ini
attr iterationvars "$time=1.5, $num=1, $0=53542, $1=75335, $2=34542"
attr iterationvarsd time=1.5/num=1/53542/75335/34542
attr iterationvarsf time=1.5,num=1,53542,75335,34542-
attr measurement "$time=1.5, $num=1, $0=53542, $1=75335, $2=34542"
attr network lbqfkMM1
attr processid 25264
attr repetition 0
attr replication #0
attr resultdir results
attr runnumber 8
attr seedset 8
itervar num 1
itervar time 1.5
config description "MM1 module k-times lbqf"
config network lbqfkMM1
config **.interArrivalTime "truncnormal(uniform(0.5s, 1.5s), uniform(0.25s, 0.75s))"
config **.serviceTime 1.5s
config **.c 1
config **.capacity 10000
config record-eventlog false
config **.scalar-recording true
config **.vector-recording true
config repeat 4
config seed-1-mt 53542
config seed-2-mt 75335
config seed-3-mt 34542
config output-vector-file k_MM1_lbqf-1-1.5-results/0.vec
config output-scalar-file k_MM1_lbqf-1-1.5-results/0.sca

vector 0 lbqfkMM1.mm1[0] queueLength:vector ETV
attr interpolationmode none
attr recordingmode vector
attr title "queue length"
vector 1 lbqfkMM1.mm1[0] util:vector ETV
attr interpolationmode none
attr recordingmode vector
attr title resources
0	5	10	1
0	9	11.4179975783	2
0	10	11.4179975783	3
0	11	11.5	2
0	14	13	1
0	20	13.006117595291	2
0	21	13.006117595291	3
0	25	13.685612523861	4
0	26	13.685612523861	5
0	30	14.091919437312	6
0	31	14.091919437312	7
0	32	14.5	6
0	38	15.81518145576	7
0	39	15.81518145576	8
0	40	16	7
0	46	16.749159394393	8
0	47	16.749159394393	9
0	48	17.5	8
0	54	18.3063866262	9
0	55	18.3063866262	10
0	56	19	9
0	62	19.260719429715	10
0	63	19.260719429715	11
0	64	20.5	10
0	70	20.986124437149	11
0	71	20.986124437149	12
0	75	21.79887648796	13
0	76	21.79887648796	14
0	80	21.861495428424	15
0	81	21.861495428424	16
0	82	22	15
0	88	22.634205408966	16
0	89	22.634205408966	17
0	93	22.876025209043	18
0	94	22.876025209043	19
0	98	23.462318184652	20
0	99	23.462318184652	21
0	100	23.5	20
0	106	24.909821568494	21
0	107	24.909821568494	22
0	108	25	21
0	114	25.418711152335	22
0	115	25.418711152335	23
0	119	26.40836306461	24
0	120	26.40836306461	25
0	121	26.5	24
0	127	27.487869694272	25
0	128	27.487869694272	26
0	129	28	25
0	135	29.222170925002	26
0	136	29.222170925002	27
0	137	29.5	26
0	143	30.250681761104	27
0	144	30.250681761104	28
0	145	31	27
0	151	31.134952329734	28
0	152	31.134952329734	29
0	156	31.910577635631	30
0	157	31.910577635631	31
0	161	32.217519139158	32
0	162	32.217519139158	33
0	163	32.5	32
0	169	33.34664825356	33
0	170	33.34664825356	34
0	171	34	33
0	177	34.014385939486	34
0	178	34.014385939486	35
0	182	35.285855757753	36
0	183	35.285855757753	37
0	184	35.5	36
0	190	35.794302651992	37
0	191	35.794302651992	38
0	195	36.35916908674	39
0	196	36.35916908674	40
0	200	36.931634803945	41
0	201	36.931634803945	42
0	202	37	41
0	208	37.330517683642	42
0	209	37.330517683642	43
0	213	37.934379510045	44
0	214	37.934379510045	45
0	215	38.5	44
0	221	38.954142623003	45
0	222	38.954142623003	46
0	223	40	45
0	229	40.296329361107	46
0	230	40.296329361107	47
0	231	41.5	46
0	237	42.381356828362	47
0	238	42.381356828362	48
0	242	42.553401732476	49
0	243	42.553401732476	50
0	244	43	49
0	250	43.959829688463	50
0	251	43.959829688463	51
0	252	44.5	50
0	258	45.415626468144	51
0	259	45.415626468144	52
0	260	46	51
0	266	46.493352389454	52
0	267	46.493352389454	53
0	271	47.385319165856	54
0	272	47.385319165856	55
0	273	47.5	54
0	279	48.401273938825	55
0	280	48.401273938825	56
0	281	49	55
0	287	49.035691439864	56
0	288	49.035691439864	57
0	292	49.855269864824	58
0	293	49.855269864824	59
0	294	50.5	58
0	300	50.735383981029	59
0	301	50.735383981029	60
0	305	50.849368452313	61
0	306	50.849368452313	62
0	307	52	61
0	313	52.500123612469	62
0	314	52.500123612469	63
0	315	53.5	62
0	321	53.901857029627	63
0	322	53.901857029627	64
0	326	54.599051948626	65
0	327	54.599051948626	66
0	328	55	65
0	334	56.197632311193	66
0	335	56.197632311193	67
0	336	56.5	66
0	339	58	65
0	345	58.786411459107	66
0	346	58.786411459107	67
0	350	58.897397772113	68
0	351	58.897397772113	69
0	352	59.5	68
0	358	59.983625579424	69
0	359	59.983625579424	70
0	363	60.548574859748	71
0	364	60.548574859748	72
0	365	61	71
0	371	61.537596369259	72
0	372	61.537596369259	73
0	373	62.5	72
0	379	62.51670040718	73
0	380	62.51670040718	74
0	384	62.83031758314	75
0	385	62.83031758314	76
0	389	63.865092677105	77
0	390	63.865092677105	78
0	391	64	77
0	397	64.284471779243	78
0	398	64.284471779243	79
0	402	64.583045388586	80
0	403	64.583045388586	81
0	404	65.5	80
0	410	66.412870786133	81
0	411	66.412870786133	82
0	415	66.496083866248	83
0	416	66.496083866248	84
0	417	67	83
0	423	67.054224357101	84
0	424	67.054224357101	85
0	428	68.474032412268	86
0	429	68.474032412268	87
0	430	68.5	86
0	436	69.307338710832	87
0	437	69.307338710832	88
0	438	70	87
0	444	70.086562494068	88
0	445	70.086562494068	89
0	449	71.283987236033	90
0	450	71.283987236033	91
0	451	71.5	90
0	457	72.060012740844	91
0	458	72.060012740844	92
0	459	73	91
0	465	73.434638408872	92
0	466	73.434638408872	93
0	470	74.249728478891	94
0	471	74.249728478891	95
0	472	74.5	94
0	478	75.88346967028	95
0	479	75.88346967028	96
0	480	76	95
0	486	77.304169962256	96
0	487	77.304169962256	97
0	488	77.5	96
0	494	78.433744306402	97
0	495	78.433744306402	98
0	499	78.728393882029	99
0	500	78.728393882029	100
0	501	79	99
0	507	79.83902864866	100
0	508	79.83902864866	101
0	512	80.196372566693	102
0	513	80.196372566693	103
0	514	80.5	102
0	520	80.547082547157	103
0	521	80.547082547157	104
0	525	81.743439378304	105
0	526	81.743439378304	106
0	527	82	105
0	533	83.077136768069	106
0	534	83.077136768069	107
0	538	83.349027213255	108
0	539	83.349027213255	109
0	540	83.5	108
0	546	84.679088514805	109
0	547	84.679088514805	110
0	548	85	109
0	554	85.310766885386	110
0	555	85.310766885386	111
0	559	86.027617649048	112
0	560	86.027617649048	113
0	561	86.5	112
0	567	87.536655248997	113
0	568	87.536655248997	114
0	569	88	113
0	572	89.5	112
0	578	89.848156290882	113
0	579	89.848156290882	114
0	583	90.38035798062	115
0	584	90.38035798062	116
0	585	91	115
0	591	91.701547887471	116
0	592	91.701547887471	117
0	593	92.5	116
0	599	93.125765977731	117
0	600	93.125765977731	118
0	601	94	117
0	604	95.5	116
0	610	95.550840422946	117
0	611	95.550840422946	118
0	615	96.859559950445	119
0	616	96.859559950445	120
0	617	97	119
0	623	97.550737410619	120
0	624	97.550737410619	121
0	628	98.378775406644	122
0	629	98.378775406644	123
0	630	98.5	122
0	636	99.172893160131	123
0	637	99.172893160131	124
0	638	100	123
0	644	100.285897134704	124
0	645	100.285897134704	125
0	649	100.832906547518	126
0	650	100.832906547518	127
0	651	101.5	126
0	657	101.892647180953	127
0	658	101.892647180953	128
0	662	102.894354581442	129
0	663	102.894354581442	130
0	664	103	129
0	670	103.328226841434	130
0	671	103.328226841434	131
0	675	103.437990814189	132
0	676	103.437990814189	133
0	680	103.99721100943	134
0	681	103.99721100943	135
0	682	104.5	134
0	688	104.834101205217	135
0	689	104.834101205217	136
0	693	105.712642792066	137
0	694	105.712642792066	138
0	695	106	137
0	701	106.376796754138	138
0	702	106.376796754138	139
0	706	106.814934732436	140
0	707	106.814934732436	141
0	711	107.404799392231	142
0	712	107.404799392231	143
0	713	107.5	142
0	716	109	141
0	722	109.367599068289	142
0	723	109.367599068289	143
0	724	110.5	142
0	730	111.035490124162	143
0	731	111.035490124162	144
0	732	112	143
0	738	112.257755866315	144
0	739	112.257755866315	145
0	743	113.412064300857	146
0	744	113.412064300857	147
0	745	113.5	146
0	748	115	145
0	754	115.986387097365	146
0	755	115.986387097365	147
0	756	116.5	146
0	762	116.701992400577	147
0	763	116.701992400577	148
0	767	117.768466191156	149
0	768	117.768466191156	150
0	769	118	149
0	775	119.394326406198	150
0	776	119.394326406198	151
0	777	119.5	150
0	783	119.722529407153	151
0	784	119.722529407153	152
0	788	120.619949224911	153
0	789	120.619949224911	154
0	790	121	153
0	796	122.302849634865	154
0	797	122.302849634865	155
0	801	122.345586537826	156
0	802	122.345586537826	157
0	803	122.5	156
0	806	124	155
0	812	124.249932944901	156
0	813	124.249932944901	157
0	817	124.308699324082	158
0	818	124.308699324082	159
0	822	125.267831491191	160
0	823	125.267831491191	161
0	824	125.5	160
0	830	125.605499369662	161
0	831	125.605499369662	162
0	832	127	161
0	838	127.546132585331	162
0	839	127.546132585331	163
0	843	128.102471372105	164
0	844	128.102471372105	165
0	845	128.5	164
0	851	129.141475569119	165
0	852	129.141475569119	166
0	853	130	165
0	859	130.580159548672	166
0	860	130.580159548672	167
0	864	131.06273667942	168
0	865	131.06273667942	169
0	866	131.5	168
0	872	132.480765272421	169
0	873	132.480765272421	170
0	874	133	169
0	880	134.139349505011	170
0	881	134.139349505011	171
0	882	134.5	170
0	888	135.415208467399	171
0	889	135.415208467399	172
0	890	136	171
0	896	136.624762655634	172
0	897	136.624762655634	173
0	898	137.5	172
0	904	138.641880903138	173
0	905	138.641880903138	174
0	906	139	173
0	912	139.752419605104	174
0	913	139.752419605104	175
0	914	140.5	174
0	920	141.439452844657	175
0	921	141.439452844657	176
0	925	141.952350867707	177
0	926	141.952350867707	178
0	927	142	177
0	933	142.737724395042	178
0	934	142.737724395042	179
0	935	143.5	178
0	941	143.900427413182	179
0	942	143.900427413182	180
0	946	144.335626011526	181
0	947	144.335626011526	182
0	948	145	181
0	954	145.606277082905	182
0	955	145.606277082905	183
0	959	145.620149860941	184
0	960	145.620149860941	185
0	964	145.90626824857	186
0	965	145.90626824857	187
0	966	146.5	186
0	972	146.829346056435	187
0	973	146.829346056435	188
0	977	147.403809041726	189
0	978	147.403809041726	190
0	979	148	189
0	985	148.345894968286	190
0	986	148.345894968286	191
0	987	149.5	190
0	990	151	189
0	996	151.753581411879	190
0	997	151.753581411879	191
0	998	152.5	190
0	1004	152.908759627979	191
0	1005	152.908759627979	192
0	1009	153.811019225094	193
0	1010	153.811019225094	194
0	1011	154	193
0	1017	154.649130672607	194
0	1018	154.649130672607	195
0	1019	155.5	194
0	1025	155.507399469749	195
0	1026	155.507399469749	196
0	1030	156.425145950989	197
0	1031	156.425145950989	198
0	1032	157	197
0	1038	157.506104469529	198
0	1039	157.506104469529	199
0	1043	158.460841074443	200
0	1044	158.460841074443	201
0	1045	158.5	200
0	1051	159.833593036805	201
0	1052	159.833593036805	202
0	1053	160	201
0	1059	161.497796576344	202
0	1060	161.497796576344	203
0	1061	161.5	202
0	1067	162.794323308155	203
0	1068	162.794323308155	204
0	1069	163	203
0	1075	163.940189169166	204
0	1076	163.940189169166	205
0	1077	164.5	204
0	1083	164.7511486829	205
0	1084	164.7511486829	206
0	1088	165.534006543178	207
0	1089	165.534006543178	208
0	1093	165.786584692583	209
0	1094	165.786584692583	210
0	1095	166	209
0	1101	166.735194945969	210
0	1102	166.735194945969	211
0	1103	167.5	210
0	1109	168.129128660574	211
0	1110	168.129128660574	212
0	1114	168.770889538457	213
0	1115	168.770889538457	214
0	1116	169	213
0	1122	169.732832727827	214
0	1123	169.732832727827	215
0	1127	170.447424792273	216
0	1128	170.447424792273	217
0	1129	170.5	216
0	1135	171.893454881528	217
0	1136	171.893454881528	218
0	1137	172	217
0	1143	173.417389637284	218
0	1144	173.417389637284	219
0	1145	173.5	218
0	1151	174.480925302272	219
0	1152	174.480925302272	220
0	1153	175	219
0	1159	176.355221262723	220
0	1160	176.355221262723	221
0	1161	176.5	220
0	1167	177.168651790167	221
0	1168	177.168651790167	222
0	1169	178	221
0	1175	178.622126073053	222
0	1176	178.622126073053	223
0	1177	179.5	222
0	1183	180.417468884132	223
0	1184	180.417468884132	224
0	1185	181	223
0	1191	181.819717984869	224
0	1192	181.819717984869	225
0	1193	182.5	224
0	1199	182.736331800116	225
0	1200	182.736331800116	226
0	1204	183.897133747465	227
0	1205	183.897133747465	228
0	1206	184	227
0	1209	185.5	226
0	1215	185.776326288446	227
0	1216	185.776326288446	228
0	1220	185.992053420981	229
0	1221	185.992053420981	230
0	1222	187	229
0	1228	187.734676866858	230
0	1229	187.734676866858	231
0	1230	188.5	230
0	1236	189.667743692766	231
0	1237	189.667743692766	232
0	1238	190	231
0	1241	191.5	230
0	1247	191.631851449417	231
0	1248	191.631851449417	232
0	1252	192.580207679327	233
0	1253	192.580207679327	234
0	1254	193	233
0	1260	193.686521042824	234
0	1261	193.686521042824	235
0	1265	193.791118045165	236
0	1266	193.791118045165	237
0	1267	194.5	236
0	1273	194.817321919489	237
0	1274	194.817321919489	238
0	1278	195.086261423494	239
0	1279	195.086261423494	240
0	1280	196	239
0	1286	196.576571710629	240
0	1287	196.576571710629	241
0	1291	197.461457293946	242
0	1292	197.461457293946	243
0	1293	197.5	242
0	1299	198.630631520568	243
0	1300	198.630631520568	244
0	1301	199	243
0	1307	199.116978047612	244
0	1308	199.116978047612	245
0	1312	200.027159181103	246
0	1313	200.027159181103	247
0	1314	200.5	246
0	1320	200.683749925987	247
0	1321	200.683749925987	248
0	1322	202	247
0	1328	202.420253823523	248
0	1329	202.420253823523	249
0	1333	202.65300453816	250
0	1334	202.65300453816	251
0	1335	203.5	250
0	1341	203.549661956279	251
0	1342	203.549661956279	252
0	1346	204.316475679343	253
0	1347	204.316475679343	254
0	1348	205	253
0	1354	205.51316647152	254
0	1355	205.51316647152	255
0	1356	206.5	254
0	1362	206.567553123004	255
0	1363	206.567553123004	256
0	1367	207.568401593715	257
0	1368	207.568401593715	258
0	1369	208	257
0	1375	208.345086538726	258
0	1376	208.345086538726	259
0	1380	208.915586106536	260
0	1381	208.915586106536	261
0	1385	208.930157114124	262
0	1386	208.930157114124	263
0	1390	209.084543745313	264
0	1391	209.084543745313	265
0	1392	209.5	264
0	1395	211	263
0	1401	211.384891869974	264
0	1402	211.384891869974	265
0	1406	212.380336932838	266
0	1407	212.380336932838	267
0	1408	212.5	266
0	1414	213.550587099322	267
0	1415	213.550587099322	268
0	1416	214	267
0	1422	214.349560071893	268
0	1423	214.349560071893	269
0	1427	215.023028832375	270
0	1428	215.023028832375	271
0	1429	215.5	270
0	1435	216.137798829613	271
0	1436	216.137798829613	272
0	1440	216.455919720114	273
0	1441	216.455919720114	274
0	1442	217	273
0	1448	218.366133866967	274
0	1449	218.366133866967	275
0	1450	218.5	274
0	1453	220	273
0	1459	220.062417962667	274
0	1460	220.062417962667	275
0	1464	220.876140699618	276
0	1465	220.876140699618	277
0	1466	221.5	276
0	1472	221.882254374457	277
0	1473	221.882254374457	278
0	1477	222.474893700526	279
0	1478	222.474893700526	280
0	1479	223	279
0	1485	223.538044570849	280
0	1486	223.538044570849	281
0	1490	224.364318900332	282
0	1491	224.364318900332	283
0	1492	224.5	282
0	1498	225.527509198939	283
0	1499	225.527509198939	284
0	1500	226	283
0	1506	226.790000172864	284
0	1507	226.790000172864	285
0	1508	227.5	284
0	1514	227.75082007085	285
0	1515	227.75082007085	286
0	1519	228.417624495176	287
0	1520	228.417624495176	288
0	1524	228.976996921356	289
0	1525	228.976996921356	290
0	1526	229	289
0	1529	230.5	288
0	1535	230.859150056361	289
0	1536	230.859150056361	290
0	1537	232	289
0	1543	232.261093900929	290
0	1544	232.261093900929	291
0	1548	233.311491200308	292
0	1549	233.311491200308	293
0	1550	233.5	292
0	1556	234.517494828545	293
0	1557	234.517494828545	294
0	1558	235	293
0	1564	235.701840245421	294
0	1565	235.701840245421	295
0	1566	236.5	294
0	1569	238	293
0	1575	238.008862169675	294
0	1576	238.008862169675	295
0	1580	238.594468991193	296
0	1581	238.594468991193	297
0	1582	239.5	296
0	1588	239.669031202834	297
0	1589	239.669031202834	298
0	1593	240.250072815605	299
0	1594	240.250072815605	300
0	1598	240.782695783309	301
0	1599	240.782695783309	302
0	1600	241	301
0	1603	242.5	300
0	1609	242.880043903776	301
0	1610	242.880043903776	302
0	1614	243.868058198578	303
0	1615	243.868058198578	304
0	1616	244	303
0	1622	245.116470063878	304
0	1623	245.116470063878	305
0	1624	245.5	304
0	1630	246.439716393412	305
0	1631	246.439716393412	306
0	1632	247	305
0	1638	247.454507281662	306
0	1639	247.454507281662	307
0	1640	248.5	306
0	1646	248.707082978558	307
0	1647	248.707082978558	308
0	1651	249.170794046279	309
0	1652	249.170794046279	310
0	1653	250	309
0	1659	250.432863025484	310
0	1660	250.432863025484	311
0	1664	250.606218444596	312
0	1665	250.606218444596	313
0	1669	251.186846408029	314
0	1670	251.186846408029	315
0	1671	251.5	314
0	1677	252.846066062863	315
0	1678	252.846066062863	316
0	1679	253	315
0	1685	254.113256997757	316
0	1686	254.113256997757	317
0	1687	254.5	316
0	1693	254.529429019095	317
0	1694	254.529429019095	318
0	1695	256	317
0	1701	256.107823946266	318
0	1702	256.107823946266	319
0	1706	257.378397715274	320
0	1707	257.378397715274	321
0	1708	257.5	320
0	1714	258.646885034712	321
0	1715	258.646885034712	322
0	1716	259	321
0	1722	259.167413166513	322
0	1723	259.167413166513	323
0	1727	260.219190920461	324
0	1728	260.219190920461	325
0	1729	260.5	324
0	1735	260.732202767398	325
0	1736	260.732202767398	326
0	1737	262	325
0	1743	262.138637723252	326
0	1744	262.138637723252	327
0	1748	262.715790722969	328
0	1749	262.715790722969	329
0	1750	263.5	328
0	1756	263.876670653576	329
0	1757	263.876670653576	330
0	1758	265	329
0	1764	265.121391653354	330
0	1765	265.121391653354	331
0	1769	266.345532507758	332
0	1770	266.345532507758	333
0	1771	266.5	332
0	1777	267.320863005337	333
0	1778	267.320863005337	334
0	1779	268	333
0	1785	268.901386152149	334
0	1786	268.901386152149	335
0	1787	269.5	334
0	1793	269.637695884154	335
0	1794	269.637695884154	336
0	1795	271	335
0	1801	272.405769930574	336
0	1802	272.405769930574	337
0	1803	272.5	336
0	1809	272.847444634308	337
0	1810	272.847444634308	338
0	1811	274	337
0	1817	274.3146643267	338
0	1818	274.3146643267	339
0	1822	275.274851219263	340
0	1823	275.274851219263	341
0	1824	275.5	340
0	1830	275.617022034345	341
0	1831	275.617022034345	342
0	1835	276.462309640492	343
0	1836	276.462309640492	344
0	1837	277	343
0	1843	277.428519105474	344
0	1844	277.428519105474	345
0	1848	278.068499322969	346
0	1849	278.068499322969	347
0	1850	278.5	346
0	1856	278.609105953646	347
0	1857	278.609105953646	348
0	1861	279.192193455276	349
0	1862	279.192193455276	350
0	1866	279.489753807433	351
0	1867	279.489753807433	352
0	1868	280	351
0	1874	280.326286505548	352
0	1875	280.326286505548	353
0	1876	281.5	352
0	1882	281.703535766027	353
0	1883	281.703535766027	354
0	1884	283	353
0	1890	283.351438574706	354
0	1891	283.351438574706	355
0	1892	284.5	354
0	1898	284.618513890226	355
0	1899	284.618513890226	356
0	1900	286	355
0	1906	286.686607956078	356
0	1907	286.686607956078	357
0	1908	287.5	356
0	1914	288.138740111836	357
0	1915	288.138740111836	358
0	1916	289	357
0	1922	289.136999572934	358
0	1923	289.136999572934	359
0	1924	290.5	358
0	1930	290.873982490623	359
0	1931	290.873982490623	360
0	1932	292	359
0	1938	292.127878764202	360
0	1939	292.127878764202	361
0	1943	292.438651287038	362
0	1944	292.438651287038	363
0	1948	293.453817067101	364
0	1949	293.453817067101	365
0	1950	293.5	364
0	1956	294.028870016769	365
0	1957	294.028870016769	366
0	1958	295	365
0	1964	295.117506064715	366
0	1965	295.117506064715	367
0	1969	296.182256113014	368
0	1970	296.182256113014	369
0	1971	296.5	368
0	1977	297.173614312443	369
0	1978	297.173614312443	370
0	1979	298	369
0	1985	299.035079220873	370
0	1986	299.035079220873	371
0	1987	299.5	370
0	1993	299.634628507826	371
0	1994	299.634628507826	372
0	1995	301	371
0	2001	301.219545810379	372
0	2002	301.219545810379	373
0	2003	302.5	372
0	2009	303.187805713549	373
0	2010	303.187805713549	374
0	2011	304	373
0	2017	304.818474530252	374
0	2018	304.818474530252	375
0	2019	305.5	374
0	2025	306.471377350667	375
0	2026	306.471377350667	376
0	2027	307	375
0	2033	308.347334646873	376
0	2034	308.347334646873	377
0	2035	308.5	376
0	2041	309.058155006054	377
0	2042	309.058155006054	378
0	2043	310	377
0	2049	311.081584454859	378
0	2050	311.081584454859	379
0	2051	311.5	378
0	2057	312.006389672065	379
0	2058	312.006389672065	380
0	2059	313	379
0	2065	313.596245215334	380
0	2066	313.596245215334	381
0	2070	313.669181620508	382
0	2071	313.669181620508	383
0	2072	314.5	382
0	2078	315.299826327765	383
0	2079	315.299826327765	384
0	2080	316	383
0	2086	316.967688104111	384
0	2087	316.967688104111	385
0	2088	317.5	384
0	2094	318.802500684021	385
0	2095	318.802500684021	386
0	2096	319	385
0	2102	319.517693439365	386
0	2103	319.517693439365	387
0	2107	320.110147628966	388
0	2108	320.110147628966	389
0	2109	320.5	388
0	2115	320.88927223744	389
0	2116	320.88927223744	390
0	2120	321.400823488513	391
0	2121	321.400823488513	392
0	2122	322	391
0	2128	322.132410661305	392
0	2129	322.132410661305	393
0	2133	322.58841821225	394
0	2134	322.58841821225	395
0	2135	323.5	394
0	2141	323.995323043804	395
0	2142	323.995323043804	396
0	2143	325	395
0	2149	325.508203279759	396
0	2150	325.508203279759	397
0	2151	326.5	396
0	2157	326.739605657058	397
0	2158	326.739605657058	398
0	2162	327.133416550381	399
0	2163	327.133416550381	400
0	2164	328	399
0	2170	328.202489576495	400
0	2171	328.202489576495	401
0	2172	329.5	400
0	2178	329.528000016608	401
0	2179	329.528000016608	402
0	2183	330.720034342395	403
0	2184	330.720034342395	404
0	2185	331	403
0	2191	331.51298233149	404
0	2192	331.51298233149	405
0	2196	332.172148868182	406
0	2197	332.172148868182	407
0	2198	332.5	406
0	2204	333.012294476149	407
0	2205	333.012294476149	408
0	2206	334	407
0	2212	334.190447282906	408
0	2213	334.190447282906	409
0	2214	335.5	408
0	2220	335.755946811419	409
0	2221	335.755946811419	410
0	2225	336.467432202149	411
0	2226	336.467432202149	412
0	2227	337	411
0	2233	337.730097196718	412
0	2234	337.730097196718	413
0	2238	337.809384796172	414
0	2239	337.809384796172	415
0	2240	338.5	414
0	2246	338.684440008617	415
0	2247	338.684440008617	416
0	2251	339.305744412107	417
0	2252	339.305744412107	418
0	2253	340	417
0	2259	340.212366201485	418
0	2260	340.212366201485	419
0	2261	341.5	418
0	2267	341.756694001743	419
0	2268	341.756694001743	420
0	2272	342.054531565674	421
0	2273	342.054531565674	422
0	2277	342.48973274886	423
0	2278	342.48973274886	424
0	2279	343	423
0	2285	343.67251814614	424
0	2286	343.67251814614	425
0	2290	344.392621492706	426
0	2291	344.392621492706	427
0	2292	344.5	426
0	2298	345.187926028282	427
0	2299	345.187926028282	428
0	2300	346	427
0	2306	346.711975591166	428
0	2307	346.711975591166	429
0	2308	347.5	428
0	2314	347.605691728151	429
0	2315	347.605691728151	430
0	2319	348.548636448009	431
0	2320	348.548636448009	432
0	2321	349	431
0	2327	349.763898996854	432
0	2328	349.763898996854	433
0	2329	350.5	432
0	2335	350.797266609691	433
0	2336	350.797266609691	434
0	2340	351.490149329826	435
0	2341	351.490149329826	436
0	2342	352	435
0	2348	353.395491907837	436
0	2349	353.395491907837	437
0	2350	353.5	436
0	2356	354.288958544258	437
0	2357	354.288958544258	438
0	2358	355	437
0	2364	355.688305086167	438
0	2365	355.688305086167	439
0	2366	356.5	438
0	2372	357.27855564369	439
0	2373	357.27855564369	440
0	2374	358	439
0	2380	358.52534192351	440
0	2381	358.52534192351	441
0	2382	359.5	440
0	2388	360.413697108508	441
0	2389	360.413697108508	442
0	2393	360.579267701628	443
0	2394	360.579267701628	444
0	2395	361	443
0	2401	361.156341806613	444
0	2402	361.156341806613	445
0	2403	362.5	444
0	2409	362.735592572768	445
0	2410	362.735592572768	446
0	2411	364	445
0	2417	364.222549168333	446
0	2418	364.222549168333	447
0	2419	365.5	446
0	2425	365.515255242388	447
0	2426	365.515255242388	448
0	2430	366.232355738643	449
0	2431	366.232355738643	450
0	2435	366.550642002762	451
0	2436	366.550642002762	452
0	2437	367	451
0	2443	367.512284195097	452
0	2444	367.512284195097	453
0	2445	368.5	452
0	2451	368.812235366115	453
0	2452	368.812235366115	454
0	2456	369.658684588699	455
0	2457	369.658684588699	456
0	2458	370	455
0	2464	370.635093601363	456
0	2465	370.635093601363	457
0	2469	371.223941803561	458
0	2470	371.223941803561	459
0	2471	371.5	458
0	2477	372.889773488708	459
0	2478	372.889773488708	460
0	2479	373	459
0	2485	374.014030287883	460
0	2486	374.014030287883	461
0	2487	374.5	460
0	2490	376	459
0	2496	376.000322797003	460
0	2497	376.000322797003	461
0	2501	376.914115071905	462
0	2502	376.914115071905	463
0	2503	377.5	462
0	2509	378.095862474829	463
0	2510	378.095862474829	464
0	2514	378.236058137768	465
0	2515	378.236058137768	466
0	2516	379	465
0	2522	380.201059569219	466
0	2523	380.201059569219	467
0	2524	380.5	466
0	2530	380.647695330101	467
0	2531	380.647695330101	468
0	2535	381.350759518871	469
0	2536	381.350759518871	470
0	2537	382	469
0	2543	382.301551583348	470
0	2544	382.301551583348	471
0	2548	382.5485467182	472
0	2549	382.5485467182	473
0	2550	383.5	472
0	2556	384.039909386597	473
0	2557	384.039909386597	474
0	2558	385	473
0	2564	385.435920494187	474
0	2565	385.435920494187	475
0	2566	386.5	474
0	2572	387.278508609969	475
0	2573	387.278508609969	476
0	2574	388	475
0	2580	388.595484464685	476
0	2581	388.595484464685	477
0	2582	389.5	476
0	2588	389.525187822309	477
0	2589	389.525187822309	478
0	2593	390.018564072754	479
0	2594	390.018564072754	480
0	2598	390.978011997905	481
0	2599	390.978011997905	482
0	2600	391	481
0	2606	391.875034512204	482
0	2607	391.875034512204	483
0	2608	392.5	482
0	2614	392.852313104332	483
0	2615	392.852313104332	484
0	2616	394	483
0	2622	394.155088920322	484
0	2623	394.155088920322	485
0	2627	395.262056529463	486
0	2628	395.262056529463	487
0	2629	395.5	486
0	2635	396.380786866109	487
0	2636	396.380786866109	488
0	2637	397	487
0	2643	397.483860804482	488
0	2644	397.483860804482	489
0	2645	398.5	488
0	2651	398.619984981972	489
0	2652	398.619984981972	490
0	2653	400	489
0	2659	400.409069965169	490
0	2660	400.409069965169	491
0	2664	401.353137328084	492
0	2665	401.353137328084	493
0	2666	401.5	492
0	2672	402.521682965737	493
0	2673	402.521682965737	494
0	2674	403	493
0	2680	403.256794773855	494
0	2681	403.256794773855	495
0	2682	404.5	494
0	2688	404.588574252339	495
0	2689	404.588574252339	496
0	2693	405.914229692442	497
0	2694	405.914229692442	498
0	2695	406	497
0	2701	406.764569542103	498
0	2702	406.764569542103	499
0	2706	407.399001879869	500
0	2707	407.399001879869	501
0	2708	407.5	500
0	2714	408.52047306937	501
0	2715	408.52047306937	502
0	2716	409	501
0	2722	409.657433267742	502
0	2723	409.657433267742	503
0	2724	410.5	502
0	2730	410.928777712556	503
0	2731	410.928777712556	504
0	2735	411.879953891953	505
0	2736	411.879953891953	506
0	2737	412	505
0	2743	413.243844451244	506
0	2744	413.243844451244	507
0	2745	413.5	506
0	2751	414.425141560592	507
0	2752	414.425141560592	508
0	2756	414.897775522733	509
0	2757	414.897775522733	510
0	2758	415	509
0	2764	416.446377708238	510
0	2765	416.446377708238	511
0	2766	416.5	510
0	2772	417.003175654183	511
0	2773	417.003175654183	512
0	2774	418	511
0	2780	418.317204310133	512
0	2781	418.317204310133	513
0	2785	418.399813329068	514
0	2786	418.399813329068	515
0	2787	419.5	514
0	2793	419.933171048537	515
0	2794	419.933171048537	516
0	2798	420.960706891709	517
0	2799	420.960706891709	518
0	2800	421	517
0	2803	422.5	516
0	2809	422.891317337171	517
0	2810	422.891317337171	518
0	2811	424	517
0	2817	424.150542190175	518
0	2818	424.150542190175	519
0	2819	425.5	518
0	2825	425.670139501424	519
0	2826	425.670139501424	520
0	2827	427	519
0	2833	427.159249366514	520
0	2834	427.159249366514	521
0	2838	427.459077468789	522
0	2839	427.459077468789	523
0	2840	428.5	522
0	2846	429.148709237707	523
0	2847	429.148709237707	524
0	2848	430	523
0	2854	430.132024905263	524
0	2855	430.132024905263	525
0	2859	430.659424289833	526
0	2860	430.659424289833	527
0	2864	431.048163692272	528
0	2865	431.048163692272	529
0	2869	431.33411616208	530
0	2870	431.33411616208	531
0	2871	431.5	530
0	2874	433	529
0	2880	433.122266669106	530
0	2881	433.122266669106	531
0	2885	433.975345357896	532
0	2886	433.975345357896	533
0	2890	434.212984991166	534
0	2891	434.212984991166	535
0	2895	434.43158255298	536
0	2896	434.43158255298	537
0	2897	434.5	536
0	2900	436	535
0	2906	436.729535882452	536
0	2907	436.729535882452	537
0	2911	437.439669880374	538
0	2912	437.439669880374	539
0	2913	437.5	538
0	2919	438.555343175853	539
0	2920	438.555343175853	540
0	2921	439	539
0	2927	440.248511005848	540
0	2928	440.248511005848	541
0	2929	440.5	540
0	2935	441.55169450095	541
0	2936	441.55169450095	542
0	2937	442	541
0	2943	443.039140821585	542
0	2944	443.039140821585	543
0	2945	443.5	542
0	2951	443.5870960519	543
0	2952	443.5870960519	544
0	2956	444.80840076369	545
0	2957	444.80840076369	546
0	2958	445	545
0	2964	445.557853157524	546
0	2965	445.557853157524	547
0	2966	446.5	546
0	2972	447.421363706865	547
0	2973	447.421363706865	548
0	2974	448	547
0	2980	449.141965642359	548
0	2981	449.141965642359	549
0	2982	449.5	548
0	2988	450.212830713393	549
0	2989	450.212830713393	550
0	2990	451	549
0	2996	451.452878776077	550
0	2997	451.452878776077	551
0	3001	452.33359421164	552
0	3002	452.33359421164	553
0	3003	452.5	552
0	3009	453.909604541785	553
0	3010	453.909604541785	554
0	3011	454	553
0	3017	455.447254974074	554
0	3018	455.447254974074	555
0	3019	455.5	554
0	3022	457	553
0	3028	457.583723402089	554
0	3029	457.583723402089	555
0	3033	458.296689847544	556
0	3034	458.296689847544	557
0	3035	458.5	556
0	3041	459.953055956081	557
0	3042	459.953055956081	558
0	3043	460	557
0	3046	461.5	556
0	3052	461.926599017208	557
0	3053	461.926599017208	558
0	3057	462.777322594796	559
0	3058	462.777322594796	560
0	3059	463	559
0	3062	464.5	558
0	3068	465.00363462216	559
0	3069	465.00363462216	560
0	3070	466	559
0	3076	466.051313847626	560
0	3077	466.051313847626	561
0	3081	466.930403091944	562
0	3082	466.930403091944	563
0	3083	467.5	562
0	3089	468.06701216293	563
0	3090	468.06701216293	564
0	3091	469	563
0	3097	469.543182910524	564
0	3098	469.543182910524	565
0	3099	470.5	564
0	3105	470.914270952368	565
0	3106	470.914270952368	566
0	3107	472	565
0	3113	473.119480621378	566
0	3114	473.119480621378	567
0	3115	473.5	566
0	3121	474.369674356884	567
0	3122	474.369674356884	568
0	3123	475	567
0	3129	475.147792912091	568
0	3130	475.147792912091	569
0	3134	475.893672399709	570