version 3
run k_MM1_lbqf-9-20221127-16:03:35-25264
attr configname k_MM1_lbqf
attr datetime 20221127-16:03:35
attr datetimef 20221127-160335
attr experiment k_MM1_lbqf
attr inifile omnetpp.ini
attr iterationvars "$time=1.5, $num=1, $0=45732, $1=35463, $2=67563"
attr iterationvarsd time=1.5/num=1/45732/35463/67563
attr iterationvarsf time=1.5,num=1,45732,35463,67563-
attr measurement "$time=1.5, $num=1, $0=45732, $1=35463, $2=67563"
attr network lbqfkMM1
attr processid 25264
attr repetition 1
attr replication #1
attr resultdir results
attr runnumber 9
attr seedset 9
itervar num 1
itervar time 1.5
config description "MM1 module k-times lbqf"
config network lbqfkMM1
config **.interArrivalTime "truncnormal(uniform(0.5s, 1.5s), uniform(0.25s, 0.75s))"
config **.serviceTime 1.5s
config **.c 1
config **.capacity 10000
config record-eventlog false
config **.scalar-recording true
config **.vector-recording true
config repeat 4
config seed-1-mt 45732
config seed-2-mt 35463
config seed-3-mt 67563
config output-vector-file k_MM1_lbqf-1-1.5-results/1.vec
config output-scalar-file k_MM1_lbqf-1-1.5-results/1.sca

vector 0 lbqfkMM1.mm1[0] queueLength:vector ETV
attr interpolationmode none
attr recordingmode vector
attr title "queue length"
vector 1 lbqfkMM1.mm1[0] util:vector ETV
attr interpolationmode none
attr recordingmode vector
attr title resources
0	5	10	1
0	9	10.000092175734	2
0	10	10.000092175734	3
0	14	10.940881222857	4
0	15	10.940881222857	5
0	16	11.5	4
0	22	11.712217492249	5
0	23	11.712217492249	6
0	27	12.785780408363	7
0	28	12.785780408363	8
0	32	12.957633433942	9
0	33	12.957633433942	10
0	34	13	9
0	40	13.036117295646	10
0	41	13.036117295646	11
0	42	14.5	10
0	48	14.657118327329	11
0	49	14.657118327329	12
0	50	16	11
0	56	16.372793208754	12
0	57	16.372793208754	13
0	58	17.5	12
0	64	18.219982665541	13
0	65	18.219982665541	14
0	66	19	13
0	72	20.036151693343	14
0	73	20.036151693343	15
0	77	20.124191052546	16
0	78	20.124191052546	17
0	79	20.5	16
0	85	21.509168814318	17
0	86	21.509168814318	18
0	87	22	17
0	93	23.348675460816	18
0	94	23.348675460816	19
0	95	23.5	18
0	101	24.993901519775	19
0	102	24.993901519775	20
0	103	25	19
0	109	25.331358269374	20
0	110	25.331358269374	21
0	111	26.5	20
0	117	27.109057759787	21
0	118	27.109057759787	22
0	119	28	21
0	125	28.350446443542	22
0	126	28.350446443542	23
0	130	29.39582298765	24
0	131	29.39582298765	25
0	132	29.5	24
0	138	30.398790982443	25
0	139	30.398790982443	26
0	140	31	25
0	146	31.417351221771	26
0	147	31.417351221771	27
0	151	32.072749401236	28
0	152	32.072749401236	29
0	153	32.5	28
0	159	33.326301383502	29
0	160	33.326301383502	30
0	161	34	29
0	167	35.127307615045	30
0	168	35.127307615045	31
0	169	35.5	30
0	175	36.144672149792	31
0	176	36.144672149792	32
0	177	37	31
0	183	37.685352363867	32
0	184	37.685352363867	33
0	185	38.5	32
0	191	39.018646344749	33
0	192	39.018646344749	34
0	196	39.874593501205	35
0	197	39.874593501205	36
0	198	40	35
0	204	40.436504001432	36
0	205	40.436504001432	37
0	206	41.5	36
0	212	41.870704992271	37
0	213	41.870704992271	38
0	217	42.334283031489	39
0	218	42.334283031489	40
0	222	42.673242867635	41
0	223	42.673242867635	42
0	224	43	41
0	230	44.012844597183	42
0	231	44.012844597183	43
0	232	44.5	42
0	238	45.517018335603	43
0	239	45.517018335603	44
0	240	46	43
0	246	46.548652682341	44
0	247	46.548652682341	45
0	251	47.446600130886	46
0	252	47.446600130886	47
0	253	47.5	46
0	259	48.174849726001	47
0	260	48.174849726001	48
0	261	49	47
0	267	49.245843542807	48
0	268	49.245843542807	49
0	272	49.300273941442	50
0	273	49.300273941442	51
0	274	50.5	50
0	280	51.163449516256	51
0	281	51.163449516256	52
0	285	51.485281840534	53
0	286	51.485281840534	54
0	287	52	53
0	293	52.704298926487	54
0	294	52.704298926487	55
0	295	53.5	54
0	301	53.989724791722	55
0	302	53.989724791722	56
0	306	54.417557665018	57
0	307	54.417557665018	58
0	308	55	57
0	314	55.489680166158	58
0	315	55.489680166158	59
0	316	56.5	58
0	322	56.999411041928	59
0	323	56.999411041928	60
0	327	57.732378210813	61
0	328	57.732378210813	62
0	329	58	61
0	335	58.898608891677	62
0	336	58.898608891677	63
0	337	59.5	62
0	343	59.597912958982	63
0	344	59.597912958982	64
0	348	60.900418901185	65
0	349	60.900418901185	66
0	350	61	65
0	356	61.943375715106	66
0	357	61.943375715106	67
0	358	62.5	66
0	364	63.755394120368	67
0	365	63.755394120368	68
0	366	64	67
0	372	64.699467860777	68
0	373	64.699467860777	69
0	377	65.2975485034	70
0	378	65.2975485034	71
0	379	65.5	70
0	385	65.935632358834	71
0	386	65.935632358834	72
0	390	65.98863880374	73
0	391	65.98863880374	74
0	392	67	73
0	398	67.814138183732	74
0	399	67.814138183732	75
0	400	68.5	74
0	406	68.740261947954	75
0	407	68.740261947954	76
0	411	69.485914068364	77
0	412	69.485914068364	78
0	413	70	77
0	419	71.031600979704	78
0	420	71.031600979704	79
0	421	71.5	78
0	427	72.419860281891	79
0	428	72.419860281891	80
0	429	73	79
0	435	73.306637474395	80
0	436	73.306637474395	81
0	437	74.5	80
0	443	74.678476719658	81
0	444	74.678476719658	82
0	448	75.411810457759	83
0	449	75.411810457759	84
0	450	76	83
0	456	77.132525467539	84
0	457	77.132525467539	85
0	458	77.5	84
0	464	78.285058482089	85
0	465	78.285058482089	86
0	466	79	85
0	472	79.29662840455	86
0	473	79.29662840455	87
0	474	80.5	86
0	480	80.596644953792	87
0	481	80.596644953792	88
0	482	82	87
0	488	83.172604651767	88
0	489	83.172604651767	89
0	490	83.5	88
0	496	84.636772621895	89
0	497	84.636772621895	90
0	498	85	89
0	504	85.750275379361	90
0	505	85.750275379361	91
0	506	86.5	90
0	512	87.370477818356	91
0	513	87.370477818356	92
0	517	87.988687881401	93
0	518	87.988687881401	94
0	519	88	93
0	525	89.422274250197	94
0	526	89.422274250197	95
0	527	89.5	94
0	533	90.89092243756	95
0	534	90.89092243756	96
0	535	91	95
0	541	91.08771084718	96
0	542	91.08771084718	97
0	546	92.144376756961	98
0	547	92.144376756961	99
0	548	92.5	98
0	554	93.472130857357	99
0	555	93.472130857357	100
0	556	94	99
0	562	95.130080552067	100
0	563	95.130080552067	101
0	564	95.5	100
0	567	97	99
0	573	97.200401128426	100
0	574	97.200401128426	101
0	578	97.861629619161	102
0	579	97.861629619161	103
0	583	97.974267212714	104
0	584	97.974267212714	105
0	585	98.5	104
0	591	99.083973085741	105
0	592	99.083973085741	106
0	593	100	105
0	599	100.358042376398	106
0	600	100.358042376398	107
0	601	101.5	106
0	607	101.751812371698	107
0	608	101.751812371698	108
0	609	103	107
0	615	103.545421721648	108
0	616	103.545421721648	109
0	620	103.940774120653	110
0	621	103.940774120653	111
0	622	104.5	110
0	628	104.787557938563	111
0	629	104.787557938563	112
0	630	106	111
0	636	106.700307737882	112
0	637	106.700307737882	113
0	638	107.5	112
0	644	107.565523724727	113
0	645	107.565523724727	114
0	649	107.746045990382	115
0	650	107.746045990382	116
0	651	109	115
0	657	109.141503539478	116
0	658	109.141503539478	117
0	659	110.5	116
0	665	110.84129073423	117
0	666	110.84129073423	118
0	667	112	117
0	673	112.328028229637	118
0	674	112.328028229637	119
0	675	113.5	118
0	681	113.54967741309	119
0	682	113.54967741309	120
0	683	115	119
0	689	115.568713469591	120
0	690	115.568713469591	121
0	691	116.5	120
0	697	116.553081436425	121
0	698	116.553081436425	122
0	702	117.337937660608	123
0	703	117.337937660608	124
0	704	118	123
0	710	118.679252561987	124
0	711	118.679252561987	125
0	715	119.117820874163	126
0	716	119.117820874163	127
0	720	119.457048757536	128
0	721	119.457048757536	129
0	722	119.5	128
0	725	121	127
0	731	121.121521886798	128
0	732	121.121521886798	129
0	733	122.5	128
0	739	122.701342165407	129
0	740	122.701342165407	130
0	744	123.550837878968	131
0	745	123.550837878968	132
0	746	124	131
0	752	125.408210292275	132
0	753	125.408210292275	133
0	754	125.5	132
0	760	125.59232657382	133
0	761	125.59232657382	134
0	765	126.899580220018	135
0	766	126.899580220018	136
0	767	127	135
0	773	127.169211571192	136
0	774	127.169211571192	137
0	778	128.236415077721	138
0	779	128.236415077721	139
0	780	128.5	138
0	786	129.435409904845	139
0	787	129.435409904845	140
0	791	129.980274268411	141
0	792	129.980274268411	142
0	793	130	141
0	799	130.909688371794	142
0	800	130.909688371794	143
0	804	131.486692948444	144
0	805	131.486692948444	145
0	806	131.5	144
0	812	132.669628959816	145
0	813	132.669628959816	146
0	814	133	145
0	820	133.716763704169	146
0	821	133.716763704169	147
0	822	134.5	146
0	828	135.249580518717	147
0	829	135.249580518717	148
0	830	136	147
0	836	136.500993925687	148
0	837	136.500993925687	149
0	838	137.5	148
0	844	137.959458217826	149
0	845	137.959458217826	150
0	849	138.693971993501	151
0	850	138.693971993501	152
0	851	139	151
0	857	139.347228361091	152
0	858	139.347228361091	153
0	862	139.597408283566	154
0	863	139.597408283566	155
0	864	140.5	154
0	870	141.591082526849	155
0	871	141.591082526849	156
0	875	141.801631373416	157
0	876	141.801631373416	158
0	877	142	157
0	883	142.795763137059	158
0	884	142.795763137059	159
0	885	143.5	158
0	891	144.160655854234	159
0	892	144.160655854234	160
0	893	145	159
0	899	145.118618628799	160
0	900	145.118618628799	161
0	904	145.811232426274	162
0	905	145.811232426274	163
0	906	146.5	162
0	912	146.888236768203	163
0	913	146.888236768203	164
0	917	147.370392086667	165
0	918	147.370392086667	166
0	919	148	165
0	925	149.223313511885	166
0	926	149.223313511885	167
0	927	149.5	166
0	933	150.267588872097	167
0	934	150.267588872097	168
0	938	150.904020181972	169
0	939	150.904020181972	170
0	940	151	169
0	946	152.422514455024	170
0	947	152.422514455024	171
0	948	152.5	170
0	951	154	169
0	957	154.159193642705	170
0	958	154.159193642705	171
0	962	155.425948523277	172
0	963	155.425948523277	173
0	964	155.5	172
0	970	156.390900341895	173
0	971	156.390900341895	174
0	972	157	173
0	978	157.117038134237	174
0	979	157.117038134237	175
0	980	158.5	174
0	986	158.726461579246	175
0	987	158.726461579246	176
0	991	159.700025914608	177
0	992	159.700025914608	178
0	993	160	177
0	999	160.686701015061	178
0	1000	160.686701015061	179
0	1001	161.5	178
0	1007	161.861980815799	179
0	1008	161.861980815799	180
0	1012	162.573771298548	181
0	1013	162.573771298548	182
0	1014	163	181
0	1020	164.015484858277	182
0	1021	164.015484858277	183
0	1025	164.129578389148	184
0	1026	164.129578389148	185
0	1027	164.5	184
0	1033	165.804032165976	185
0	1034	165.804032165976	186
0	1035	166	185
0	1041	167.250505978851	186
0	1042	167.250505978851	187
0	1043	167.5	186
0	1049	168.756421501454	187
0	1050	168.756421501454	188
0	1054	168.913821460945	189
0	1055	168.913821460945	190
0	1059	168.988150173767	191
0	1060	168.988150173767	192
0	1061	169	191
0	1067	169.422011384236	192
0	1068	169.422011384236	193
0	1069	170.5	192
0	1075	170.81739927797	193
0	1076	170.81739927797	194
0	1077	172	193
0	1083	172.14582297744	194
0	1084	172.14582297744	195
0	1088	173.134281793813	196
0	1089	173.134281793813	197
0	1090	173.5	196
0	1096	173.912604057014	197
0	1097	173.912604057014	198
0	1098	175	197
0	1104	175.207455110509	198
0	1105	175.207455110509	199
0	1109	176.13005111882	200
0	1110	176.13005111882	201
0	1114	176.249814598686	202
0	1115	176.249814598686	203
0	1116	176.5	202
0	1122	177.588195017769	203
0	1123	177.588195017769	204
0	1124	178	203
0	1130	178.14302713187	204
0	1131	178.14302713187	205
0	1135	179.393664831917	206
0	1136	179.393664831917	207
0	1137	179.5	206
0	1140	181	205
0	1146	181.228407553669	206
0	1147	181.228407553669	207
0	1151	181.730914674813	208
0	1152	181.730914674813	209
0	1153	182.5	208
0	1159	183.471007623714	209
0	1160	183.471007623714	210
0	1161	184	209
0	1167	184.236533314766	210
0	1168	184.236533314766	211
0	1172	185.365911789542	212
0	1173	185.365911789542	213
0	1174	185.5	212
0	1180	186.709721854888	213
0	1181	186.709721854888	214
0	1182	187	213
0	1188	187.080523658767	214
0	1189	187.080523658767	215
0	1193	187.947098715107	216
0	1194	187.947098715107	217
0	1195	188.5	216
0	1201	189.595700595972	217
0	1202	189.595700595972	218
0	1203	190	217
0	1209	191.112722617317	218
0	1210	191.112722617317	219
0	1211	191.5	218
0	1217	191.8873418908	219
0	1218	191.8873418908	220
0	1219	193	219
0	1225	193.990513285344	220
0	1226	193.990513285344	221
0	1227	194.5	220
0	1233	195.485157363686	221
0	1234	195.485157363686	222
0	1235	196	221
0	1241	196.584986855764	222
0	1242	196.584986855764	223
0	1246	197.497352282089	224
0	1247	197.497352282089	225
0	1248	197.5	224
0	1254	198.620676681066	225
0	1255	198.620676681066	226
0	1256	199	225
0	1262	200.486723918586	226
0	1263	200.486723918586	227
0	1264	200.5	226
0	1270	200.593633904233	227
0	1271	200.593633904233	228
0	1275	200.883915380812	229
0	1276	200.883915380812	230
0	1277	202	229
0	1283	202.444560304586	230
0	1284	202.444560304586	231
0	1285	203.5	230
0	1291	203.586153134236	231
0	1292	203.586153134236	232
0	1293	205	231
0	1299	205.643709341654	232
0	1300	205.643709341654	233
0	1301	206.5	232
0	1307	206.62091754366	233
0	1308	206.62091754366	234
0	1312	207.504545469538	235
0	1313	207.504545469538	236
0	1317	207.701709015384	237
0	1318	207.701709015384	238
0	1319	208	237
0	1325	209.205324022818	238
0	1326	209.205324022818	239
0	1327	209.5	238
0	1333	210.075123046617	239
0	1334	210.075123046617	240
0	1335	211	239
0	1341	211.829073841881	240
0	1342	211.829073841881	241
0	1343	212.5	240
0	1349	213.394968771356	241
0	1350	213.394968771356	242
0	1354	213.617266959837	243
0	1355	213.617266959837	244
0	1356	214	243
0	1362	215.23094044157	244
0	1363	215.23094044157	245
0	1364	215.5	244
0	1370	216.326005149184	245
0	1371	216.326005149184	246
0	1372	217	245
0	1378	218.015693150646	246
0	1379	218.015693150646	247
0	1380	218.5	246
0	1386	219.370499004689	247
0	1387	219.370499004689	248
0	1391	219.577865255103	249
0	1392	219.577865255103	250
0	1393	220	249
0	1399	220.911814693684	250
0	1400	220.911814693684	251
0	1401	221.5	250
0	1407	221.908162323783	251
0	1408	221.908162323783	252
0	1409	223	251
0	1415	223.361553902691	252
0	1416	223.361553902691	253
0	1420	224.433783844187	254
0	1421	224.433783844187	255
0	1425	224.462261562687	256
0	1426	224.462261562687	257
0	1427	224.5	256
0	1433	225.494874229886	257
0	1434	225.494874229886	258
0	1435	226	257
0	1441	226.740965284676	258
0	1442	226.740965284676	259
0	1443	227.5	258
0	1446	229	257
0	1452	229.097307349001	258
0	1453	229.097307349001	259
0	1457	229.137436194906	260
0	1458	229.137436194906	261
0	1462	229.915174838481	262
0	1463	229.915174838481	263
0	1464	230.5	262
0	1470	231.45194663146	263
0	1471	231.45194663146	264
0	1472	232	263
0	1475	233.5	262
0	1481	233.715026482982	263
0	1482	233.715026482982	264
0	1486	234.958893205005	265
0	1487	234.958893205005	266
0	1488	235	265
0	1494	235.782528772315	266
0	1495	235.782528772315	267
0	1496	236.5	266
0	1502	236.682389798028	267
0	1503	236.682389798028	268
0	1504	238	267
0	1510	238.237454687087	268
0	1511	238.237454687087	269
0	1515	238.677561643482	270
0	1516	238.677561643482	271
0	1517	239.5	270
0	1523	239.919420568111	271
0	1524	239.919420568111	272
0	1525	241	271
0	1531	241.633613191762	272
0	1532	241.633613191762	273
0	1533	242.5	272
0	1539	243.656546088532	273
0	1540	243.656546088532	274
0	1541	244	273
0	1547	245.277564641897	274
0	1548	245.277564641897	275
0	1549	245.5	274
0	1555	245.765433428713	275
0	1556	245.765433428713	276
0	1560	246.798907028155	277
0	1561	246.798907028155	278
0	1562	247	277
0	1568	248.002170659235	278
0	1569	248.002170659235	279
0	1570	248.5	278
0	1576	249.557594447184	279
0	1577	249.557594447184	280
0	1578	250	279
0	1584	250.427394104667	280
0	1585	250.427394104667	281
0	1586	251.5	280
0	1592	251.514727544586	281
0	1593	251.514727544586	282
0	1597	252.102531771758	283
0	1598	252.102531771758	284
0	1599	253	283
0	1605	253.891240139087	284
0	1606	253.891240139087	285
0	1610	254.381481435443	286
0	1611	254.381481435443	287
0	1612	254.5	286
0	1618	254.857473043223	287
0	1619	254.857473043223	288
0	1623	255.358614393958	289
0	1624	255.358614393958	290
0	1628	255.980874426056	291
0	1629	255.980874426056	292
0	1630	256	291
0	1636	257.309095724741	292
0	1637	257.309095724741	293
0	1638	257.5	292
0	1644	258.857980509151	293
0	1645	258.857980509151	294
0	1646	259	293
0	1652	259.947630649073	294
0	1653	259.947630649073	295
0	1654	260.5	294
0	1660	261.088784411112	295
0	1661	261.088784411112	296
0	1662	262	295
0	1668	262.430149948545	296
0	1669	262.430149948545	297
0	1670	263.5	296
0	1676	263.555598727622	297
0	1677	263.555598727622	298
0	1681	264.578070044537	299
0	1682	264.578070044537	300
0	1683	265	299
0	1689	266.438407490455	300
0	1690	266.438407490455	301
0	1691	266.5	300
0	1697	267.294399548582	301
0	1698	267.294399548582	302
0	1699	268	301
0	1705	268.612516935829	302
0	1706	268.612516935829	303
0	1710	269.443328301867	304
0	1711	269.443328301867	305
0	1712	269.5	304
0	1718	270.838775803107	305
0	1719	270.838775803107	306
0	1720	271	305
0	1726	271.516980800722	306
0	1727	271.516980800722	307
0	1728	272.5	306
0	1734	273.385482992028	307
0	1735	273.385482992028	308
0	1736	274	307
0	1742	274.582317056499	308
0	1743	274.582317056499	309
0	1744	275.5	308
0	1750	276.244713334021	309
0	1751	276.244713334021	310
0	1752	277	309
0	1758	277.836204599759	310
0	1759	277.836204599759	311
0	1760	278.5	310
0	1766	278.719319050622	311
0	1767	278.719319050622	312
0	1771	279.761076331205	313
0	1772	279.761076331205	314
0	1773	280	313
0	1779	280.298432993378	314
0	1780	280.298432993378	315
0	1781	281.5	314
0	1787	281.502366556651	315
0	1788	281.502366556651	316
0	1789	283	315
0	1795	283.035776792497	316
0	1796	283.035776792497	317
0	1800	284.173574431097	318
0	1801	284.173574431097	319
0	1802	284.5	318
0	1808	285.675938740783	319
0	1809	285.675938740783	320
0	1810	286	319
0	1816	286.824179813791	320
0	1817	286.824179813791	321
0	1818	287.5	320
0	1824	288.073260770968	321
0	1825	288.073260770968	322
0	1829	288.438212808999	323
0	1830	288.438212808999	324
0	1831	289	323
0	1837	289.858721965579	324
0	1838	289.858721965579	325
0	1839	290.5	324
0	1845	291.011860495762	325
0	1846	291.011860495762	326
0	1847	292	325
0	1853	292.19642354811	326
0	1854	292.19642354811	327
0	1858	293.227527580987	328
0	1859	293.227527580987	329
0	1860	293.5	328
0	1866	294.531137632363	329
0	1867	294.531137632363	330
0	1868	295	329
0	1874	295.487800347485	330
0	1875	295.487800347485	331
0	1876	296.5	330
0	1882	296.667365171568	331
0	1883	296.667365171568	332
0	1884	298	331
0	1890	298.153521978903	332
0	1891	298.153521978903	333
0	1892	299.5	332
0	1898	300.08546605949	333
0	1899	300.08546605949	334
0	1900	301	333
0	1906	301.306540055513	334
0	1907	301.306540055513	335
0	1911	302.261346794092	336
0	1912	302.261346794092	337
0	1913	302.5	336
0	1919	303.858488900666	337
0	1920	303.858488900666	338
0	1921	304	337
0	1927	305.270249055731	338
0	1928	305.270249055731	339
0	1929	305.5	338
0	1935	306.053513114815	339
0	1936	306.053513114815	340
0	1940	306.601193630053	341
0	1941	306.601193630053	342
0	1945	306.968922304444	343
0	1946	306.968922304444	344
0	1947	307	343
0	1953	308.238385833097	344
0	1954	308.238385833097	345
0	1955	308.5	344
0	1961	309.766908081761	345
0	1962	309.766908081761	346
0	1963	310	345
0	1966	311.5	344
0	1972	311.544533842923	345
0	1973	311.544533842923	346
0	1977	312.317174027993	347
0	1978	312.317174027993	348
0	1979	313	347
0	1985	313.229969288681	348
0	1986	313.229969288681	349
0	1990	314.17255720196	350
0	1991	314.17255720196	351
0	1995	314.261448922579	352
0	1996	314.261448922579	353
0	1997	314.5	352
0	2003	315.621678544822	353
0	2004	315.621678544822	354
0	2005	316	353
0	2011	316.626920928104	354
0	2012	316.626920928104	355
0	2016	317.214980804472	356
0	2017	317.214980804472	357
0	2018	317.5	356
0	2024	317.921864910823	357
0	2025	317.921864910823	358
0	2026	319	357
0	2032	320.315073461425	358
0	2033	320.315073461425	359
0	2034	320.5	358
0	2040	321.499365472827	359
0	2041	321.499365472827	360
0	2042	322	359
0	2048	322.123412327526	360
0	2049	322.123412327526	361
0	2053	323.420952265313	362
0	2054	323.420952265313	363
0	2055	323.5	362
0	2061	324.69914389991	363
0	2062	324.69914389991	364
0	2063	325	363
0	2069	325.210124455123	364
0	2070	325.210124455123	365
0	2071	326.5	364
0	2074	328	363
0	2080	328.096805574511	364
0	2081	328.096805574511	365
0	2085	328.913960050023	366
0	2086	328.913960050023	367
0	2090	329.324387164154	368
0	2091	329.324387164154	369
0	2092	329.5	368
0	2098	330.533816362305	369
0	2099	330.533816362305	370
0	2103	330.887806911176	371
0	2104	330.887806911176	372
0	2105	331	371
0	2111	331.556691989055	372
0	2112	331.556691989055	373
0	2113	332.5	372
0	2119	332.600106583956	373
0	2120	332.600106583956	374
0	2124	332.92609528457	375
0	2125	332.92609528457	376
0	2126	334	375
0	2132	334.857772278889	376
0	2133	334.857772278889	377
0	2134	335.5	376
0	2140	335.834270140072	377
0	2141	335.834270140072	378
0	2145	336.77939259744	379
0	2146	336.77939259744	380
0	2147	337	379
0	2153	337.562147572538	380
0	2154	337.562147572538	381
0	2158	338.494301854795	382
0	2159	338.494301854795	383
0	2160	338.5	382
0	2166	339.604939777884	383
0	2167	339.604939777884	384
0	2168	340	383
0	2174	340.588435625201	384
0	2175	340.588435625201	385
0	2176	341.5	384
0	2182	342.802374616262	385
0	2183	342.802374616262	386
0	2184	343	385
0	2190	344.005207230202	386
0	2191	344.005207230202	387
0	2192	344.5	386
0	2198	345.111170295025	387
0	2199	345.111170295025	388
0	2200	346	387
0	2206	346.551965597662	388
0	2207	346.551965597662	389
0	2208	347.5	388
0	2214	347.602636313089	389
0	2215	347.602636313089	390
0	2216	349	389
0	2222	349.462331007122	390
0	2223	349.462331007122	391
0	2227	350.30299317786	392
0	2228	350.30299317786	393
0	2229	350.5	392
0	2235	351.11531543579	393
0	2236	351.11531543579	394
0	2240	351.664905368894	395
0	2241	351.664905368894	396
0	2242	352	395
0	2248	353.040560522564	396
0	2249	353.040560522564	397
0	2250	353.5	396
0	2256	353.791167453121	397
0	2257	353.791167453121	398
0	2258	355	397
0	2264	355.288072230439	398
0	2265	355.288072230439	399
0	2266	356.5	398
0	2272	357.047157070833	399
0	2273	357.047157070833	400
0	2277	357.94146264419	401
0	2278	357.94146264419	402
0	2279	358	401
0	2285	358.883972983408	402
0	2286	358.883972983408	403
0	2287	359.5	402
0	2293	360.107131347016	403
0	2294	360.107131347016	404
0	2295	361	403
0	2301	361.491218021846	404
0	2302	361.491218021846	405
0	2306	361.599004084431	406
0	2307	361.599004084431	407
0	2308	362.5	406
0	2314	363.249182174281	407
0	2315	363.249182174281	408
0	2316	364	407
0	2322	364.317323915097	408
0	2323	364.317323915097	409
0	2324	365.5	408
0	2330	366.314324760331	409
0	2331	366.314324760331	410
0	2332	367	409
0	2338	367.883295710789	410
0	2339	367.883295710789	411
0	2340	368.5	410
0	2346	368.849154317148	411
0	2347	368.849154317148	412
0	2351	369.777262311786	413
0	2352	369.777262311786	414
0	2353	370	413
0	2359	370.650797567627	414
0	2360	370.650797567627	415
0	2361	371.5	414
0	2367	371.527194962959	415
0	2368	371.527194962959	416
0	2372	372.002928945843	417
0	2373	372.002928945843	418
0	2374	373	417
0	2380	373.20112004135	418
0	2381	373.20112004135	419
0	2382	374.5	418
0	2388	375.579814460892	419
0	2389	375.579814460892	420
0	2390	376	419
0	2396	376.163340237845	420
0	2397	376.163340237845	421
0	2401	376.677853562411	422
0	2402	376.677853562411	423
0	2403	377.5	422
0	2409	378.029470489857	423
0	2410	378.029470489857	424
0	2411	379	423
0	2417	379.269850334785	424
0	2418	379.269850334785	425
0	2422	380.005697567799	426
0	2423	380.005697567799	427
0	2424	380.5	426
0	2430	381.421675575684	427
0	2431	381.421675575684	428
0	2432	382	427
0	2438	383.163738458541	428
0	2439	383.163738458541	429
0	2440	383.5	428
0	2446	383.907896165165	429
0	2447	383.907896165165	430
0	2451	384.34916017175	431
0	2452	384.34916017175	432
0	2453	385	431
0	2459	385.723445609649	432
0	2460	385.723445609649	433
0	2461	386.5	432
0	2467	387.146964484313	433
0	2468	387.146964484313	434
0	2469	388	433
0	2475	388.171326688594	434
0	2476	388.171326688594	435
0	2480	388.477528406731	436
0	2481	388.477528406731	437
0	2482	389.5	436
0	2488	390.0573608751	437
0	2489	390.0573608751	438
0	2493	390.373138494801	439
0	2494	390.373138494801	440
0	2495	391	439
0	2501	391.168222611637	440
0	2502	391.168222611637	441
0	2506	391.847714980093	442
0	2507	391.847714980093	443
0	2511	392.194076034333	444
0	2512	392.194076034333	445
0	2513	392.5	444
0	2519	392.898834916901	445
0	2520	392.898834916901	446
0	2524	393.338329357954	447
0	2525	393.338329357954	448
0	2526	394	447
0	2532	394.420726067781	448
0	2533	394.420726067781	449
0	2537	395.134255531207	450
0	2538	395.134255531207	451
0	2539	395.5	450
0	2545	396.441843916118	451
0	2546	396.441843916118	452
0	2547	397	451
0	2553	398.109933145644	452
0	2554	398.109933145644	453
0	2555	398.5	452
0	2561	399.163844611296	453
0	2562	399.163844611296	454
0	2563	400	453
0	2569	400.120948513206	454
0	2570	400.120948513206	455
0	2574	400.39791334697	456
0	2575	400.39791334697	457
0	2579	401.281299728466	458
0	2580	401.281299728466	459
0	2581	401.5	458
0	2587	401.69993153865	459
0	2588	401.69993153865	460
0	2592	402.085700016309	461
0	2593	402.085700016309	462
0	2594	403	461
0	2600	403.64172326037	462
0	2601	403.64172326037	463
0	2602	404.5	462
0	2608	405.515181903939	463
0	2609	405.515181903939	464
0	2610	406	463
0	2616	407.261264550225	464
0	2617	407.261264550225	465
0	2618	407.5	464
0	2624	408.103920362899	465
0	2625	408.103920362899	466
0	2626	409	465
0	2632	409.293441674758	466
0	2633	409.293441674758	467
0	2634	410.5	466
0	2640	411.433996595346	467
0	2641	411.433996595346	468
0	2642	412	467
0	2648	413.170540652893	468
0	2649	413.170540652893	469
0	2650	413.5	468
0	2656	414.303306304221	469
0	2657	414.303306304221	470
0	2658	415	469
0	2664	415.365044493007	470
0	2665	415.365044493007	471
0	2669	416.172887235674	472
0	2670	416.172887235674	473
0	2671	416.5	472
0	2677	417.047188729971	473
0	2678	417.047188729971	474
0	2679	418	473
0	2685	418.668634670068	474
0	2686	418.668634670068	475
0	2687	419.5	474
0	2693	420.157595402077	475
0	2694	420.157595402077	476
0	2695	421	475
0	2701	421.275698037806	476
0	2702	421.275698037806	477
0	2703	422.5	476
0	2709	423.583320326887	477
0	2710	423.583320326887	478
0	2711	424	477
0	2717	424.728122424136	478
0	2718	424.728122424136	479
0	2722	424.996407085044	480
0	2723	424.996407085044	481
0	2724	425.5	480
0	2730	426.240018058914	481
0	2731	426.240018058914	482
0	2732	427	481
0	2738	427.761641477614	482
0	2739	427.761641477614	483
0	2740	428.5	482
0	2746	429.493154652366	483
0	2747	429.493154652366	484
0	2748	430	483
0	2754	430.722916314833	484
0	2755	430.722916314833	485
0	2759	431.112777288732	486
0	2760	431.112777288732	487
0	2761	431.5	486
0	2767	432.236793323011	487
0	2768	432.236793323011	488
0	2772	432.739771016084	489
0	2773	432.739771016084	490
0	2777	432.925880372284	491
0	2778	432.925880372284	492
0	2779	433	491
0	2785	433.397187203355	492
0	2786	433.397187203355	493
0	2787	434.5	492
0	2793	434.542169366265	493
0	2794	434.542169366265	494
0	2798	435.997486709073	495
0	2799	435.997486709073	496
0	2800	436	495
0	2806	437.196238495842	496
0	2807	437.196238495842	497
0	2808	437.5	496
0	2814	438.72851404244	497
0	2815	438.72851404244	498
0	2816	439	497
0	2822	439.285654679228	498
0	2823	439.285654679228	499
0	2827	440.068446393891	500
0	2828	440.068446393891	501
0	2829	440.5	500
0	2835	441.760161067354	501
0	2836	441.760161067354	502
0	2837	442	501
0	2843	442.887338924049	502
0	2844	442.887338924049	503
0	2845	443.5	502
0	2851	443.934863629455	503
0	2852	443.934863629455	504
0	2853	445	503
0	2859	445.526363161237	504
0	2860	445.526363161237	505
0	2861	446.5	504
0	2867	447.805287821613	505
0	2868	447.805287821613	506
0	2869	448	505
0	2875	448.568645500685	506
0	2876	448.568645500685	507
0	2877	449.5	506
0	2883	449.539093239797	507
0	2884	449.539093239797	508
0	2888	449.897754745428	509
0	2889	449.897754745428	510
0	2893	450.93973608417	511
0	2894	450.93973608417	512
0	2895	451	511
0	2901	452.031954499926	512
0	2902	452.031954499926	513
0	2903	452.5	512
0	2909	453.567346183314	513
0	2910	453.567346183314	514
0	2911	454	513
0	2917	454.71767060028	514
0	2918	454.71767060028	515
0	2922	455.183664681432	516
0	2923	455.183664681432	517
0	2924	455.5	516
0	2930	455.796031183357	517
0	2931	455.796031183357	518
0	2935	456.476234212833	519
0	2936	456.476234212833	520
0	2940	456.802679184677	521
0	2941	456.802679184677	522
0	2942	457	521
0	2948	457.936005086547	522
0	2949	457.936005086547	523
0	2950	458.5	522
0	2956	459.180122761394	523
0	2957	459.180122761394	524
0	2961	459.453259994196	525
0	2962	459.453259994196	526
0	2963	460	525
0	2969	461.113193899163	526
0	2970	461.113193899163	527
0	2971	461.5	526
0	2977	462.220483032391	527
0	2978	462.220483032391	528
0	2982	462.426289165323	529
0	2983	462.426289165323	530
0	2984	463	529
0	2990	463.106508264915	530
0	2991	463.106508264915	531
0	2995	463.852155451743	532
0	2996	463.852155451743	533
0	3000	464.484296172438	534
0	3001	464.484296172438	535
0	3002	464.5	534
0	3008	465.967931529445	535
0	3009	465.967931529445	536
0	3010	466	535
0	3016	466.308247219192	536
0	3017	466.308247219192	537
0	3021	466.84904217673	538
0	3022	466.84904217673	539
0	3023	467.5	538
0	3029	468.399388430492	539
0	3030	468.399388430492	540
0	3031	469	539
0	3034	470.5	538
0	3040	470.840230016691	539
0	3041	470.840230016691	540
0	3045	471.136074912103	541
0	3046	471.136074912103	542
0	3047	472	541
0	3053	472.664425700175	542
0	3054	472.664425700175	543
0	3055	473.5	542
0	3061	473.889917594974	543
0	3062	473.889917594974	544
0	3066	474.246009295389	545
0	3067	474.246009295389	546
0	3068	475	545
0	3074	475.137619444539	546
0	3075	475.137619444539	547
0	3079	476.262455071532	548
0	3080	476.262455071532	549
0	3081	476.5	548
0	3087	477.462636740461	549
0	3088	477.462636740461	550
0	3089	478	549
0	3092	479.5	548
0	3098	480.184803783646	549
0	3099	480.184803783646	550
0	3100	481	549
0	3106	481.055520871209	550
0	3107	481.055520871209	551
0	3108	482.5	550
0	3114	482.690955410754	551
0	3115	482.690955410754	552
0	3119	483.356127032143	553
0	3120	483.356127032143	554
0	3121	484	553
0	3127	484.317295505451	554
0	3128	484.317295505451	555
0	3129	485.5	554
0	3135	485.513275486499	555
0	3136	485.513275486499	556
0	3140	485.917021963518	557
0	3141	485.917021963518	558
0	3142	487	557