version 3
run k_MM1_lbqf-10-20221127-16:03:35-25264
attr configname k_MM1_lbqf
attr datetime 20221127-16:03:35
attr datetimef 20221127-160335
attr experiment k_MM1_lbqf
attr inifile omnetpp.ini
attr iterationvars "$time=1.5, $num=1, $0=47853, $1=24674, $2=96433"
attr iterationvarsd time=1.5/num=1/47853/24674/96433
attr iterationvarsf time=1.5,num=1,47853,24674,96433-
attr measurement "$time=1.5, $num=1, $0=47853, $1=24674, $2=96433"
attr network lbqfkMM1
attr processid 25264
attr repetition 2
attr replication #2
attr resultdir results
attr runnumber 10
attr seedset 10
itervar num 1
itervar time 1.5
config description "MM1 module k-times lbqf"
config network lbqfkMM1
config **.interArrivalTime "truncnormal(uniform(0.5s, 1.5s), uniform(0.25s, 0.75s))"
config **.serviceTime 1.5s
config **.c 1
config **.capacity 10000
config record-eventlog false
config **.scalar-recording true
config **.vector-recording true
config repeat 4
config seed-1-mt 47853
config seed-2-mt 24674
config seed-3-mt 96433
config output-vector-file k_MM1_lbqf-1-1.5-results/2.vec
config output-scalar-file k_MM1_lbqf-1-1.5-results/2.sca

vector 0 lbqfkMM1.mm1[0] queueLength:vector ETV
attr interpolationmode none
attr recordingmode vector
attr title "queue length"
vector 1 lbqfkMM1.mm1[0] util:vector ETV
attr interpolationmode none
attr recordingmode vector
attr title resources
0	5	10	1
0	9	11.1895771404	2
0	10	11.1895771404	3
0	11	11.5	2
0	17	12.709024815093	3
0	18	12.709024815093	4
0	19	13	3
0	25	14.089249797194	4
0	26	14.089249797194	5
0	27	14.5	4
0	33	14.687492071932	5
0	34	14.687492071932	6
0	38	15.452806453803	7
0	39	15.452806453803	8
0	40	16	7
0	46	17.233791051638	8
0	47	17.233791051638	9
0	48	17.5	8
0	54	18.125312944343	9
0	55	18.125312944343	10
0	56	19	9
0	62	19.909735020709	10
0	63	19.909735020709	11
0	64	20.5	10
0	70	21.050625902468	11
0	71	21.050625902468	12
0	72	22	11
0	78	23.027029133201	12
0	79	23.027029133201	13
0	80	23.5	12
0	86	24.114993870878	13
0	87	24.114993870878	14
0	88	25	13
0	94	25.321699022152	14
0	95	25.321699022152	15
0	96	26.5	14
0	102	26.821413869948	15
0	103	26.821413869948	16
0	104	28	15
0	110	28.36992871038	16
0	111	28.36992871038	17
0	112	29.5	16
0	118	29.556896130314	17
0	119	29.556896130314	18
0	123	30.625109192018	19
0	124	30.625109192018	20
0	125	31	19
0	131	31.694308949252	20
0	132	31.694308949252	21
0	136	31.985046645489	22
0	137	31.985046645489	23
0	138	32.5	22
0	144	32.92580793234	23
0	145	32.92580793234	24
0	149	33.947823855073	25
0	150	33.947823855073	26
0	151	34	25
0	154	35.5	24
0	160	35.728269735665	25
0	161	35.728269735665	26
0	162	37	25
0	168	37.042551133481	26
0	169	37.042551133481	27
0	173	37.339101077246	28
0	174	37.339101077246	29
0	175	38.5	28
0	181	39.551089687215	29
0	182	39.551089687215	30
0	183	40	29
0	189	40.582972380021	30
0	190	40.582972380021	31
0	191	41.5	30
0	197	41.595158216898	31
0	198	41.595158216898	32
0	202	42.708342418734	33
0	203	42.708342418734	34
0	204	43	33
0	210	43.076166640877	34
0	211	43.076166640877	35
0	212	44.5	34
0	218	44.519644372651	35
0	219	44.519644372651	36
0	223	44.99003447394	37
0	224	44.99003447394	38
0	225	46	37
0	231	46.607252006711	38
0	232	46.607252006711	39
0	236	47.490788763685	40
0	237	47.490788763685	41
0	238	47.5	40
0	244	48.09363575041	41
0	245	48.09363575041	42
0	246	49	41
0	252	49.142789259147	42
0	253	49.142789259147	43
0	257	49.406717007733	44
0	258	49.406717007733	45
0	259	50.5	44
0	265	50.609164906869	45
0	266	50.609164906869	46
0	270	51.473008618541	47
0	271	51.473008618541	48
0	275	51.96623377289	49
0	276	51.96623377289	50
0	277	52	49
0	283	53.2218035718	50
0	284	53.2218035718	51
0	285	53.5	50
0	291	54.853213650357	51
0	292	54.853213650357	52
0	293	55	51
0	299	55.861977143251	52
0	300	55.861977143251	53
0	301	56.5	52
0	307	56.773677946135	53
0	308	56.773677946135	54
0	312	57.886635187876	55
0	313	57.886635187876	56
0	314	58	55
0	320	58.404455716092	56
0	321	58.404455716092	57
0	322	59.5	56
0	328	59.709113890651	57
0	329	59.709113890651	58
0	330	61	57
0	336	61.097303710446	58
0	337	61.097303710446	59
0	338	62.5	58
0	344	63.511463358746	59
0	345	63.511463358746	60
0	346	64	59
0	352	64.640528485481	60
0	353	64.640528485481	61
0	354	65.5	60
0	360	66.189624636039	61
0	361	66.189624636039	62
0	362	67	61
0	368	67.410968634388	62
0	369	67.410968634388	63
0	370	68.5	62
0	376	69.108852383505	63
0	377	69.108852383505	64
0	378	70	63
0	384	70.200976664873	64
0	385	70.200976664873	65
0	389	71.121653351491	66
0	390	71.121653351491	67
0	391	71.5	66
0	397	71.930622282928	67
0	398	71.930622282928	68
0	402	72.615350315213	69
0	403	72.615350315213	70
0	404	73	69
0	410	73.307737627102	70
0	411	73.307737627102	71
0	415	74.443216695055	72
0	416	74.443216695055	73
0	417	74.5	72
0	423	75.132145021244	73
0	424	75.132145021244	74
0	425	76	73
0	431	76.288073090758	74
0	432	76.288073090758	75
0	433	77.5	74
0	439	77.729030743904	75
0	440	77.729030743904	76
0	444	78.930329209347	77
0	445	78.930329209347	78
0	446	79	77
0	452	80.193777181541	78
0	453	80.193777181541	79
0	454	80.5	78
0	460	81.08790452129	79
0	461	81.08790452129	80
0	462	82	79
0	468	82.002241596547	80
0	469	82.002241596547	81
0	473	83.398853367256	82
0	474	83.398853367256	83
0	475	83.5	82
0	481	83.549107145305	83
0	482	83.549107145305	84
0	483	85	83
0	489	85.041573010868	84
0	490	85.041573010868	85
0	494	86.073067912017	86
0	495	86.073067912017	87
0	496	86.5	86
0	502	87.063119779984	87
0	503	87.063119779984	88
0	504	88	87
0	510	88.771855213669	88
0	511	88.771855213669	89
0	512	89.5	88
0	518	90.482901637866	89
0	519	90.482901637866	90
0	520	91	89
0	526	91.55541325467	90
0	527	91.55541325467	91
0	528	92.5	90
0	534	92.857124497792	91
0	535	92.857124497792	92
0	539	93.520290265763	93
0	540	93.520290265763	94
0	541	94	93
0	547	94.248366767301	94
0	548	94.248366767301	95
0	549	95.5	94
0	555	95.635622895759	95
0	556	95.635622895759	96
0	560	96.869714987574	97
0	561	96.869714987574	98
0	562	97	97
0	568	98.275660460206	98
0	569	98.275660460206	99
0	570	98.5	98
0	576	99.039948608631	99
0	577	99.039948608631	100
0	581	99.410634932063	101
0	582	99.410634932063	102
0	583	100	101
0	589	101.221321237245	102
0	590	101.221321237245	103
0	591	101.5	102
0	597	102.050911609578	103
0	598	102.050911609578	104
0	599	103	103
0	605	103.177623726048	104
0	606	103.177623726048	105
0	610	103.727471544967	106
0	611	103.727471544967	107
0	612	104.5	106
0	618	105.150097298696	107
0	619	105.150097298696	108
0	623	105.780877504545	109
0	624	105.780877504545	110
0	625	106	109
0	631	107.415862757467	110
0	632	107.415862757467	111
0	633	107.5	110
0	639	108.456258222025	111
0	640	108.456258222025	112
0	641	109	111
0	647	109.563347562954	112
0	648	109.563347562954	113
0	649	110.5	112
0	655	111.004569512874	113
0	656	111.004569512874	114
0	657	112	113
0	663	112.135069736869	114
0	664	112.135069736869	115
0	668	112.754795273919	116
0	669	112.754795273919	117
0	673	112.860533750977	118
0	674	112.860533750977	119
0	678	113.464235459973	120
0	679	113.464235459973	121
0	680	113.5	120
0	686	114.545262490301	121
0	687	114.545262490301	122
0	688	115	121
0	691	116.5	120
0	697	116.586933542203	121
0	698	116.586933542203	122
0	702	117.604429662284	123
0	703	117.604429662284	124
0	704	118	123
0	710	118.613029473231	124
0	711	118.613029473231	125
0	715	119.246968018205	126
0	716	119.246968018205	127
0	717	119.5	126
0	723	120.366732288144	127
0	724	120.366732288144	128
0	725	121	127
0	731	121.094857579174	128
0	732	121.094857579174	129
0	736	121.590794878713	130
0	737	121.590794878713	131
0	738	122.5	130
0	744	123.270308591901	131
0	745	123.270308591901	132
0	746	124	131
0	752	124.417688642354	132
0	753	124.417688642354	133
0	754	125.5	132
0	760	126.033881987028	133
0	761	126.033881987028	134
0	765	126.513092583662	135
0	766	126.513092583662	136
0	767	127	135
0	773	127.17138299548	136
0	774	127.17138299548	137
0	778	127.36163001299	138
0	779	127.36163001299	139
0	783	128.12516760836	140
0	784	128.12516760836	141
0	785	128.5	140
0	791	129.302978706177	141
0	792	129.302978706177	142
0	793	130	141
0	799	130.083282723012	142
0	800	130.083282723012	143
0	804	130.256020206045	144
0	805	130.256020206045	145
0	809	130.393177354824	146
0	810	130.393177354824	147
0	811	131.5	146
0	817	132.321086824601	147
0	818	132.321086824601	148
0	819	133	147
0	825	133.127260231971	148
0	826	133.127260231971	149
0	830	133.656009400523	150
0	831	133.656009400523	151
0	832	134.5	150
0	838	135.204614309512	151
0	839	135.204614309512	152
0	843	135.966551608274	153
0	844	135.966551608274	154
0	845	136	153
0	851	137.032401217036	154
0	852	137.032401217036	155
0	853	137.5	154
0	859	137.551979957781	155
0	860	137.551979957781	156
0	864	138.758115243827	157
0	865	138.758115243827	158
0	866	139	157
0	869	140.5	156
0	875	140.585467267298	157
0	876	140.585467267298	158
0	877	142	157
0	883	142.067088903381	158
0	884	142.067088903381	159
0	885	143.5	158
0	891	143.884709990339	159
0	892	143.884709990339	160
0	896	144.870761927206	161
0	897	144.870761927206	162
0	898	145	161
0	904	145.683001877355	162
0	905	145.683001877355	163
0	906	146.5	162
0	912	146.816640677964	163
0	913	146.816640677964	164
0	917	147.417609295691	165
0	918	147.417609295691	166
0	919	148	165
0	922	149.5	164
0	928	149.792002855777	165
0	929	149.792002855777	166
0	930	151	165
0	936	151.151683712472	166
0	937	151.151683712472	167
0	941	152.083516383179	168
0	942	152.083516383179	169
0	943	152.5	168
0	949	153.433351624539	169
0	950	153.433351624539	170
0	951	154	169
0	957	154.500122689251	170
0	958	154.500122689251	171
0	959	155.5	170
0	965	156.003423023818	171
0	966	156.003423023818	172
0	967	157	171
0	973	157.207370531445	172
0	974	157.207370531445	173
0	975	158.5	172
0	981	158.695660002294	173
0	982	158.695660002294	174
0	986	159.819961159174	175
0	987	159.819961159174	176
0	988	160	175
0	994	160.609534933872	176
0	995	160.609534933872	177
0	999	161.050615761284	178
0	1000	161.050615761284	179
0	1001	161.5	178
0	1007	162.468848629379	179
0	1008	162.468848629379	180
0	1009	163	179
0	1015	163.716447242045	180
0	1016	163.716447242045	181
0	1017	164.5	180
0	1023	164.57103599997	181
0	1024	164.57103599997	182
0	1028	165.194268650334	183
0	1029	165.194268650334	184
0	1033	165.645927620495	185
0	1034	165.645927620495	186
0	1035	166	185
0	1041	166.796813108366	186
0	1042	166.796813108366	187
0	1043	167.5	186
0	1049	167.927257500766	187
0	1050	167.927257500766	188
0	1051	169	187
0	1057	169.357587866869	188
0	1058	169.357587866869	189
0	1059	170.5	188
0	1065	170.702416370417	189
0	1066	170.702416370417	190
0	1070	171.927058988517	191
0	1071	171.927058988517	192
0	1072	172	191
0	1078	172.667305024006	192
0	1079	172.667305024006	193
0	1080	173.5	192
0	1086	174.067327624311	193
0	1087	174.067327624311	194
0	1088	175	193
0	1094	175.080151645887	194
0	1095	175.080151645887	195
0	1099	175.155939879209	196
0	1100	175.155939879209	197
0	1104	175.158250875902	198
0	1105	175.158250875902	199
0	1109	176.276632607808	200
0	1110	176.276632607808	201
0	1114	176.320437807414	202
0	1115	176.320437807414	203
0	1116	176.5	202
0	1122	176.68578389753	203
0	1123	176.68578389753	204
0	1127	177.272535063001	205
0	1128	177.272535063001	206
0	1132	177.633672469596	207
0	1133	177.633672469596	208
0	1134	178	207
0	1140	178.808896200804	208
0	1141	178.808896200804	209
0	1142	179.5	208
0	1148	179.943384095577	209
0	1149	179.943384095577	210
0	1153	180.39562238803	211
0	1154	180.39562238803	212
0	1155	181	211
0	1161	181.190508121236	212
0	1162	181.190508121236	213
0	1166	181.735049310712	214
0	1167	181.735049310712	215
0	1171	182.366278021862	216
0	1172	182.366278021862	217
0	1173	182.5	216
0	1179	183.623648043638	217
0	1180	183.623648043638	218
0	1181	184	217
0	1187	184.688256572971	218
0	1188	184.688256572971	219
0	1189	185.5	218
0	1195	186.316241619271	219
0	1196	186.316241619271	220
0	1197	187	219
0	1203	187.57091929721	220
0	1204	187.57091929721	221
0	1205	188.5	220
0	1211	188.805749190765	221
0	1212	188.805749190765	222
0	1216	189.529936302519	223
0	1217	189.529936302519	224
0	1218	190	223
0	1224	190.877514148385	224
0	1225	190.877514148385	225
0	1226	191.5	224
0	1232	191.545792530129	225
0	1233	191.545792530129	226
0	1237	191.781666987446	227
0	1238	191.781666987446	228
0	1239	193	227
0	1245	193.418250769029	228
0	1246	193.418250769029	229
0	1250	194.152236781708	230
0	1251	194.152236781708	231
0	1252	194.5	230
0	1258	195.804018633748	231
0	1259	195.804018633748	232
0	1260	196	231
0	1266	196.31040918089	232
0	1267	196.31040918089	233
0	1271	197.497701483532	234
0	1272	197.497701483532	235
0	1273	197.5	234
0	1279	198.216982598965	235
0	1280	198.216982598965	236
0	1281	199	235
0	1287	199.383311455282	236
0	1288	199.383311455282	237
0	1292	200.166758668933	238
0	1293	200.166758668933	239
0	1294	200.5	238
0	1300	201.593409168262	239
0	1301	201.593409168262	240
0	1302	202	239
0	1308	202.059739148414	240
0	1309	202.059739148414	241
0	1313	202.283517733225	242
0	1314	202.283517733225	243
0	1315	203.5	242
0	1321	203.504449180614	243
0	1322	203.504449180614	244
0	1326	204.322876393661	245
0	1327	204.322876393661	246
0	1328	205	245
0	1334	205.869926058387	246
0	1335	205.869926058387	247
0	1339	206.3081079224	248
0	1340	206.3081079224	249
0	1341	206.5	248
0	1347	207.59618062609	249
0	1348	207.59618062609	250
0	1349	208	249
0	1355	208.350184434475	250
0	1356	208.350184434475	251
0	1360	208.868413764408	252
0	1361	208.868413764408	253
0	1362	209.5	252
0	1368	210.38996004552	253
0	1369	210.38996004552	254
0	1373	210.565282376076	255
0	1374	210.565282376076	256
0	1375	211	255
0	1381	211.569419534366	256
0	1382	211.569419534366	257
0	1386	212.402850055753	258
0	1387	212.402850055753	259
0	1388	212.5	258
0	1394	212.916415327765	259
0	1395	212.916415327765	260
0	1396	214	259
0	1402	214.306659240376	260
0	1403	214.306659240376	261
0	1407	214.816636252199	262
0	1408	214.816636252199	263
0	1412	215.381440538759	264
0	1413	215.381440538759	265
0	1414	215.5	264
0	1417	217	263
0	1423	217.126390708168	264
0	1424	217.126390708168	265
0	1428	218.438785014281	266
0	1429	218.438785014281	267
0	1430	218.5	266
0	1436	219.120154857618	267
0	1437	219.120154857618	268
0	1438	220	267
0	1444	220.856423652197	268
0	1445	220.856423652197	269
0	1446	221.5	268
0	1452	221.69799207365	269
0	1453	221.69799207365	270
0	1457	222.409365929393	271
0	1458	222.409365929393	272
0	1459	223	271
0	1465	223.640718739515	272
0	1466	223.640718739515	273
0	1470	224.278396245944	274
0	1471	224.278396245944	275
0	1472	224.5	274
0	1478	225.733413165576	275
0	1479	225.733413165576	276
0	1480	226	275
0	1483	227.5	274
0	1489	227.729691663819	275
0	1490	227.729691663819	276
0	1494	228.771613129753	277
0	1495	228.771613129753	278
0	1496	229	277
0	1502	229.273274174197	278
0	1503	229.273274174197	279
0	1504	230.5	278
0	1510	231.441397968417	279
0	1511	231.441397968417	280
0	1512	232	279
0	1518	232.063592071587	280
0	1519	232.063592071587	281
0	1523	233.344256767166	282
0	1524	233.344256767166	283
0	1525	233.5	282
0	1531	234.105325143636	283
0	1532	234.105325143636	284
0	1533	235	283
0	1539	236.117713677944	284
0	1540	236.117713677944	285
0	1541	236.5	284
0	1547	237.207297486508	285
0	1548	237.207297486508	286
0	1549	238	285
0	1555	238.082012625115	286
0	1556	238.082012625115	287
0	1560	239.100991826524	288
0	1561	239.100991826524	289
0	1562	239.5	288
0	1568	240.271604244981	289
0	1569	240.271604244981	290
0	1570	241	289
0	1576	241.315358348239	290
0	1577	241.315358348239	291
0	1581	241.981123256685	292
0	1582	241.981123256685	293
0	1583	242.5	292
0	1589	242.551995472321	293
0	1590	242.551995472321	294
0	1594	243.589301246976	295
0	1595	243.589301246976	296
0	1596	244	295
0	1602	244.358225017158	296
0	1603	244.358225017158	297
0	1607	245.100247292753	298
0	1608	245.100247292753	299
0	1612	245.485821597737	300
0	1613	245.485821597737	301
0	1614	245.5	300
0	1617	247	299
0	1623	247.301059085983	300
0	1624	247.301059085983	301
0	1628	248.179165121238	302
0	1629	248.179165121238	303
0	1630	248.5	302
0	1633	250	301
0	1639	250.016907750446	302
0	1640	250.016907750446	303
0	1644	251.336138703796	304
0	1645	251.336138703796	305
0	1646	251.5	304
0	1652	252.580882531113	305
0	1653	252.580882531113	306
0	1654	253	305
0	1660	253.887795152717	306
0	1661	253.887795152717	307
0	1662	254.5	306
0	1668	254.685786050931	307
0	1669	254.685786050931	308
0	1673	255.214175445819	309
0	1674	255.214175445819	310
0	1675	256	309
0	1681	256.430655886023	310
0	1682	256.430655886023	311
0	1683	257.5	310
0	1689	257.922841403322	311
0	1690	257.922841403322	312
0	1694	258.377758115065	313
0	1695	258.377758115065	314
0	1696	259	313
0	1702	259.969474468669	314
0	1703	259.969474468669	315
0	1704	260.5	314
0	1710	260.742386984375	315
0	1711	260.742386984375	316
0	1715	261.932650072557	317
0	1716	261.932650072557	318
0	1717	262	317
0	1720	263.5	316
0	1726	263.502577591526	317
0	1727	263.502577591526	318
0	1731	264.388788322568	319
0	1732	264.388788322568	320
0	1733	265	319
0	1739	265.400334412839	320
0	1740	265.400334412839	321
0	1744	265.958900405032	322
0	1745	265.958900405032	323
0	1746	266.5	322
0	1752	266.785428255098	323
0	1753	266.785428255098	324
0	1754	268	323
0	1760	268.730196038821	324
0	1761	268.730196038821	325
0	1765	269.286402064404	326
0	1766	269.286402064404	327
0	1767	269.5	326
0	1773	270.740754038443	327
0	1774	270.740754038443	328
0	1775	271	327
0	1781	271.46447045538	328
0	1782	271.46447045538	329
0	1783	272.5	328
0	1789	273.188071344308	329
0	1790	273.188071344308	330
0	1791	274	329
0	1797	274.106862603546	330
0	1798	274.106862603546	331
0	1802	275.258031255806	332
0	1803	275.258031255806	333
0	1804	275.5	332
0	1807	277	331
0	1813	277.071963462302	332
0	1814	277.071963462302	333
0	1818	278.131157646619	334
0	1819	278.131157646619	335
0	1820	278.5	334
0	1826	278.619344686171	335
0	1827	278.619344686171	336
0	1831	279.74690694818	337
0	1832	279.74690694818	338
0	1833	280	337
0	1839	280.071103236366	338
0	1840	280.071103236366	339
0	1844	280.267147935555	340
0	1845	280.267147935555	341
0	1849	280.832329421743	342
0	1850	280.832329421743	343
0	1851	281.5	342
0	1857	281.709227788117	343
0	1858	281.709227788117	344
0	1862	281.874109976581	345
0	1863	281.874109976581	346
0	1867	282.169386718357	347
0	1868	282.169386718357	348
0	1872	282.381643744129	349
0	1873	282.381643744129	350
0	1877	282.694924917815	351
0	1878	282.694924917815	352
0	1879	283	351
0	1885	283.959331411745	352
0	1886	283.959331411745	353
0	1887	284.5	352
0	1893	284.535368288474	353
0	1894	284.535368288474	354
0	1898	284.804796284342	355
0	1899	284.804796284342	356
0	1903	285.550487180677	357
0	1904	285.550487180677	358
0	1905	286	357
0	1911	286.456611383972	358
0	1912	286.456611383972	359
0	1913	287.5	358
0	1919	288.163492548336	359
0	1920	288.163492548336	360
0	1921	289	359
0	1927	289.254777442532	360
0	1928	289.254777442532	361
0	1932	290.074522492713	362
0	1933	290.074522492713	363
0	1934	290.5	362
0	1940	290.647092237458	363
0	1941	290.647092237458	364
0	1945	291.319556777506	365
0	1946	291.319556777506	366
0	1947	292	365
0	1953	292.237205212694	366
0	1954	292.237205212694	367
0	1958	293.29926175109	368
0	1959	293.29926175109	369
0	1960	293.5	368
0	1966	294.70020337485	369
0	1967	294.70020337485	370
0	1968	295	369
0	1974	295.324436049424	370
0	1975	295.324436049424	371
0	1976	296.5	370
0	1982	296.96228806382	371
0	1983	296.96228806382	372
0	1984	298	371
0	1990	298.209206780125	372
0	1991	298.209206780125	373
0	1995	298.605660916822	374
0	1996	298.605660916822	375
0	1997	299.5	374
0	2003	299.740084116698	375
0	2004	299.740084116698	376
0	2008	300.902177977714	377
0	2009	300.902177977714	378
0	2010	301	377
0	2016	302.360331879696	378
0	2017	302.360331879696	379
0	2018	302.5	378
0	2024	303.366886930637	379
0	2025	303.366886930637	380
0	2026	304	379
0	2032	304.254550819436	380
0	2033	304.254550819436	381
0	2037	304.742080944036	382
0	2038	304.742080944036	383
0	2042	305.391524722416	384
0	2043	305.391524722416	385
0	2044	305.5	384
0	2050	306.62836528878	385
0	2051	306.62836528878	386
0	2052	307	385
0	2058	307.518044460085	386
0	2059	307.518044460085	387
0	2063	308.34557526975	388
0	2064	308.34557526975	389
0	2065	308.5	388
0	2071	309.219780389837	389
0	2072	309.219780389837	390
0	2076	309.3198491997	391
0	2077	309.3198491997	392
0	2078	310	391
0	2084	311.09653877277	392
0	2085	311.09653877277	393
0	2086	311.5	392
0	2092	311.629838826338	393
0	2093	311.629838826338	394
0	2094	313	393
0	2100	313.099879833041	394
0	2101	313.099879833041	395
0	2105	313.406018920595	396
0	2106	313.406018920595	397
0	2110	314.377566658862	398
0	2111	314.377566658862	399
0	2112	314.5	398
0	2118	315.031366422794	399
0	2119	315.031366422794	400
0	2123	315.937552770217	401
0	2124	315.937552770217	402
0	2125	316	401
0	2131	316.49485639176	402
0	2132	316.49485639176	403
0	2133	317.5	402
0	2139	317.772576120469	403
0	2140	317.772576120469	404
0	2141	319	403
0	2147	319.181407535005	404
0	2148	319.181407535005	405
0	2149	320.5	404
0	2155	320.557889352725	405
0	2156	320.557889352725	406
0	2160	321.161723117591	407
0	2161	321.161723117591	408
0	2162	322	407
0	2168	322.194579287731	408
0	2169	322.194579287731	409
0	2173	323.166394689309	410
0	2174	323.166394689309	411
0	2175	323.5	410
0	2181	324.450590604289	411
0	2182	324.450590604289	412
0	2186	324.453504777275	413
0	2187	324.453504777275	414
0	2188	325	413
0	2194	325.523128427188	414
0	2195	325.523128427188	415
0	2196	326.5	414
0	2202	326.513867355599	415
0	2203	326.513867355599	416
0	2207	327.217350027013	417
0	2208	327.217350027013	418
0	2212	327.723899908206	419
0	2213	327.723899908206	420
0	2214	328	419
0	2220	329.143311231633	420
0	2221	329.143311231633	421
0	2222	329.5	420
0	2228	329.79758782034	421
0	2229	329.79758782034	422
0	2230	331	421
0	2236	331.40820216495	422
0	2237	331.40820216495	423
0	2241	332.259082623743	424
0	2242	332.259082623743	425
0	2243	332.5	424
0	2249	332.677002695404	425
0	2250	332.677002695404	426
0	2254	333.313383863518	427
0	2255	333.313383863518	428
0	2256	334	427
0	2262	334.33478907515	428
0	2263	334.33478907515	429
0	2267	334.970082666383	430
0	2268	334.970082666383	431
0	2269	335.5	430
0	2275	335.684930904767	431
0	2276	335.684930904767	432
0	2280	336.969177613611	433
0	2281	336.969177613611	434
0	2282	337	433
0	2288	337.199764845643	434
0	2289	337.199764845643	435
0	2293	337.906475812901	436
0	2294	337.906475812901	437
0	2295	338.5	436
0	2301	339.166868867611	437
0	2302	339.166868867611	438
0	2303	340	437
0	2309	340.623429498237	438
0	2310	340.623429498237	439
0	2311	341.5	438
0	2317	342.438280350815	439
0	2318	342.438280350815	440
0	2319	343	439
0	2325	343.394159814855	440
0	2326	343.394159814855	441
0	2327	344.5	440
0	2333	345.268434025359	441
0	2334	345.268434025359	442
0	2338	345.325575013418	443
0	2339	345.325575013418	444
0	2343	345.724205441552	445
0	2344	345.724205441552	446
0	2345	346	445
0	2351	346.356523240165	446
0	2352	346.356523240165	447
0	2356	346.473614720877	448
0	2357	346.473614720877	449
0	2361	347.496916571204	450
0	2362	347.496916571204	451
0	2363	347.5	450
0	2366	349	449
0	2372	349.605637653083	450
0	2373	349.605637653083	451
0	2377	350.242584611388	452
0	2378	350.242584611388	453
0	2379	350.5	452
0	2385	351.556358400293	453
0	2386	351.556358400293	454
0	2387	352	453
0	2393	352.32165795263	454
0	2394	352.32165795263	455
0	2398	352.789842551526	456
0	2399	352.789842551526	457
0	2400	353.5	456
0	2406	354.552643721863	457
0	2407	354.552643721863	458
0	2408	355	457
0	2414	355.861748430647	458
0	2415	355.861748430647	459
0	2419	356.346544807283	460
0	2420	356.346544807283	461
0	2421	356.5	460
0	2427	356.512801308761	461
0	2428	356.512801308761	462
0	2429	358	461
0	2435	358.738908765169	462
0	2436	358.738908765169	463
0	2440	359.433906920797	464
0	2441	359.433906920797	465
0	2442	359.5	464
0	2445	361	463
0	2451	361.021770209346	464
0	2452	361.021770209346	465
0	2453	362.5	464
0	2459	362.775903136657	465
0	2460	362.775903136657	466
0	2464	363.345516348226	467
0	2465	363.345516348226	468
0	2469	363.511653043284	469
0	2470	363.511653043284	470
0	2471	364	469
0	2477	364.089388805159	470
0	2478	364.089388805159	471
0	2482	364.851180226077	472
0	2483	364.851180226077	473
0	2484	365.5	472
0	2490	365.922389868799	473
0	2491	365.922389868799	474
0	2492	367	473
0	2498	367.775628420945	474
0	2499	367.775628420945	475
0	2503	368.385937312254	476
0	2504	368.385937312254	477
0	2505	368.5	476
0	2511	368.955358184634	477
0	2512	368.955358184634	478
0	2516	369.346302048976	479
0	2517	369.346302048976	480
0	2518	370	479
0	2524	370.477472850861	480
0	2525	370.477472850861	481
0	2526	371.5	480
0	2532	372.076558599454	481
0	2533	372.076558599454	482
0	2537	372.979007260297	483
0	2538	372.979007260297	484
0	2539	373	483
0	2545	374.263773419562	484
0	2546	374.263773419562	485
0	2547	374.5	484
0	2553	374.535150088705	485
0	2554	374.535150088705	486
0	2558	375.584200859762	487
0	2559	375.584200859762	488
0	2560	376	487
0	2566	376.577793943998	488
0	2567	376.577793943998	489
0	2571	377.376084183684	490
0	2572	377.376084183684	491
0	2573	377.5	490
0	2579	378.878750974526	491
0	2580	378.878750974526	492
0	2581	379	491
0	2587	379.805034074317	492
0	2588	379.805034074317	493
0	2589	380.5	492
0	2595	381.036475710456	493
0	2596	381.036475710456	494
0	2597	382	493
0	2603	382.825810270861	494
0	2604	382.825810270861	495
0	2605	383.5	494
0	2611	383.724763767014	495
0	2612	383.724763767014	496
0	2616	384.534758392663	497
0	2617	384.534758392663	498
0	2618	385	497
0	2621	386.5	496
0	2627	386.617190877707	497
0	2628	386.617190877707	498
0	2632	387.78732166463	499
0	2633	387.78732166463	500
0	2634	388	499
0	2640	389.029224295182	500
0	2641	389.029224295182	501
0	2642	389.5	500
0	2648	390.775428899959	501
0	2649	390.775428899959	502
0	2650	391	501
0	2656	391.623706164684	502
0	2657	391.623706164684	503
0	2658	392.5	502
0	2664	393.631669657631	503
0	2665	393.631669657631	504
0	2666	394	503
0	2672	394.059671096921	504
0	2673	394.059671096921	505
0	2677	394.555344275912	506
0	2678	394.555344275912	507
0	2682	395.153963475128	508
0	2683	395.153963475128	509
0	2687	395.274203919752	510
0	2688	395.274203919752	511
0	2689	395.5	510
0	2695	395.546631795556	511
0	2696	395.546631795556	512
0	2700	396.627214187147	513
0	2701	396.627214187147	514
0	2705	396.981100973372	515
0	2706	396.981100973372	516
0	2707	397	515
0	2713	398.168520033852	516
0	2714	398.168520033852	517
0	2715	398.5	516
0	2721	399.555368256773	517
0	2722	399.555368256773	518
0	2726	399.737535014904	519
0	2727	399.737535014904	520
0	2728	400	519
0	2734	400.359480270923	520
0	2735	400.359480270923	521
0	2739	401.065427894876	522
0	2740	401.065427894876	523
0	2744	401.309435337219	524
0	2745	401.309435337219	525
0	2746	401.5	524
0	2752	402.260123348163	525
0	2753	402.260123348163	526
0	2754	403	525
0	2760	403.264660901037	526
0	2761	403.264660901037	527
0	2765	404.187603531264	528
0	2766	404.187603531264	529
0	2767	404.5	528
0	2773	405.464160390819	529
0	2774	405.464160390819	530
0	2775	406	529
0	2781	406.316835876604	530
0	2782	406.316835876604	531
0	2786	407.351794611728	532
0	2787	407.351794611728	533
0	2788	407.5	532
0	2794	408.113458322598	533
0	2795	408.113458322598	534
0	2796	409	533
0	2802	409.346418284919	534
0	2803	409.346418284919	535
0	2804	410.5	534
0	2810	411.431958536159	535
0	2811	411.431958536159	536
0	2812	412	535
0	2818	412.89811160968	536
0	2819	412.89811160968	537
0	2823	413.075453979319	538
0	2824	413.075453979319	539
0	2825	413.5	538
0	2831	414.191791307015	539
0	2832	414.191791307015	540
0	2836	414.248771908092	541
0	2837	414.248771908092	542
0	2838	415	541
0	2844	415.80685494473	542
0	2845	415.80685494473	543
0	2846	416.5	542
0	2852	416.518858050864	543
0	2853	416.518858050864	544
0	2857	417.207744168947	545
0	2858	417.207744168947	546
0	2859	418	545
0	2865	418.558163706213	546
0	2866	418.558163706213	547
0	2870	419.183324049676	548
0	2871	419.183324049676	549
0	2872	419.5	548
0	2878	420.260009579978	549
0	2879	420.260009579978	550
0	2880	421	549
0	2886	421.575010542939	550
0	2887	421.575010542939	551
0	2888	422.5	550
0	2894	422.935833263724	551
0	2895	422.935833263724	552
0	2896	424	551
0	2902	424.470350067812	552
0	2903	424.470350067812	553
0	2907	425.149874293394	554
0	2908	425.149874293394	555
0	2909	425.5	554
0	2915	426.212567258519	555
0	2916	426.212567258519	556
0	2917	427	555
0	2920	428.5	554
0	2926	428.703886100997	555
0	2927	428.703886100997	556
0	2928	430	555
0	2934	430.396969080931	556
0	2935	430.396969080931	557
0	2936	431.5	556
0	2942	431.543653016059	557
0	2943	431.543653016059	558
0	2944	433	557
0	2950	433.741524259513	558
0	2951	433.741524259513	559
0	2952	434.5	558
0	2958	435.298545991845	559
0	2959	435.298545991845	560
0	2963	435.760576506116	561
0	2964	435.760576506116	562
0	2965	436	561
0	2971	437.036200690829	562
0	2972	437.036200690829	563
0	2973	437.5	562
0	2979	438.774703986973	563
0	2980	438.774703986973	564
0	2981	439	563
0	2987	439.277256289883	564
0	2988	439.277256289883	565
0	2992	440.139387797638	566
0	2993	440.139387797638	567
0	2997	440.498407931126	568
0	2998	440.498407931126	569
0	2999	440.5	568
0	3005	441.332031327059	569
0	3006	441.332031327059	570
0	3010	441.409139359115	571
0	3011	441.409139359115	572
0	3015	441.590030727067	573
0	3016	441.590030727067	574
0	3017	442	573
0	3020	443.5	572
0	3026	443.565697095837	573
0	3027	443.565697095837	574
0	3031	444.266067190947	575
0	3032	444.266067190947	576
0	3033	445	575
0	3039	445.183909056069	576
0	3040	445.183909056069	577
0	3044	445.907807148242	578
0	3045	445.907807148242	579
0	3046	446.5	578
0	3052	447.152376928244	579
0	3053	447.152376928244	580
0	3054	448	579
0	3057	449.5	578
0	3063	449.512160680673	579
0	3064	449.512160680673	580
0	3068	449.520645108708	581
0	3069	449.520645108708	582
0	3070	451	581
0	3076	451.221329028346	582
0	3077	451.221329028346	583
0	3081	451.758798196191	584
0	3082	451.758798196191	585
0	3083	452.5	584
0	3086	454	583
0	3092	454.01289412065	584
0	3093	454.01289412065	585
0	3097	454.651305548474	586
0	3098	454.651305548474	587
0	3099	455.5	586
0	3105	455.502840754357	587
0	3106	455.502840754357	588
0	3110	456.650774474253	589
0	3111	456.650774474253	590
0	3112	457	589