version 3
run k_MM1_lbqf-11-20221127-16:03:35-25264
attr configname k_MM1_lbqf
attr datetime 20221127-16:03:35
attr datetimef 20221127-160335
attr experiment k_MM1_lbqf
attr inifile omnetpp.ini
attr iterationvars "$time=1.5, $num=1, $0=33434, $1=56673, $2=23567"
attr iterationvarsd time=1.5/num=1/33434/56673/23567
attr iterationvarsf time=1.5,num=1,33434,56673,23567-
attr measurement "$time=1.5, $num=1, $0=33434, $1=56673, $2=23567"
attr network lbqfkMM1
attr processid 25264
attr repetition 3
attr replication #3
attr resultdir results
attr runnumber 11
attr seedset 11
itervar num 1
itervar time 1.5
config description "MM1 module k-times lbqf"
config network lbqfkMM1
config **.interArrivalTime "truncnormal(uniform(0.5s, 1.5s), uniform(0.25s, 0.75s))"
config **.serviceTime 1.5s
config **.c 1
config **.capacity 10000
config record-eventlog false
config **.scalar-recording true
config **.vector-recording true
config repeat 4
config seed-1-mt 33434
config seed-2-mt 56673
config seed-3-mt 23567
config output-vector-file k_MM1_lbqf-1-1.5-results/3.vec
config output-scalar-file k_MM1_lbqf-1-1.5-results/3.sca

vector 0 lbqfkMM1.mm1[0] queueLength:vector ETV
attr interpolationmode none
attr recordingmode vector
attr title "queue length"
vector 1 lbqfkMM1.mm1[0] util:vector ETV
attr interpolationmode none
attr recordingmode vector
attr title resources
0	5	10	1
0	9	10.651496891345	2
0	10	10.651496891345	3
0	11	11.5	2
0	17	12.113581315404	3
0	18	12.113581315404	4
0	19	13	3
0	25	13.086807225885	4
0	26	13.086807225885	5
0	30	13.971334590476	6
0	31	13.971334590476	7
0	32	14.5	6
0	38	15.857954128459	7
0	39	15.857954128459	8
0	40	16	7
0	46	16.798563086082	8
0	47	16.798563086082	9
0	51	17.11208384594	10
0	52	17.11208384594	11
0	56	17.367861627371	12
0	57	17.367861627371	13
0	58	17.5	12
0	64	18.253643023815	13
0	65	18.253643023815	14
0	66	19	13
0	72	19.440015340735	14
0	73	19.440015340735	15
0	77	19.586902493258	16
0	78	19.586902493258	17
0	79	20.5	16
0	85	20.517634839337	17
0	86	20.517634839337	18
0	90	21.289616424235	19
0	91	21.289616424235	20
0	95	21.644845837213	21
0	96	21.644845837213	22
0	97	22	21
0	103	22.905100219026	22
0	104	22.905100219026	23
0	105	23.5	22
0	111	24.520535544327	23
0	112	24.520535544327	24
0	113	25	23
0	119	25.262109574108	24
0	120	25.262109574108	25
0	124	26.098753000901	26
0	125	26.098753000901	27
0	126	26.5	26
0	132	26.609537665544	27
0	133	26.609537665544	28
0	134	28	27
0	140	28.062991956116	28
0	141	28.062991956116	29
0	145	28.796419394204	30
0	146	28.796419394204	31
0	147	29.5	30
0	153	29.718284472944	31
0	154	29.718284472944	32
0	158	29.955338511604	33
0	159	29.955338511604	34
0	163	30.064734415182	35
0	164	30.064734415182	36
0	165	31	35
0	171	31.996137829603	36
0	172	31.996137829603	37
0	173	32.5	36
0	179	32.826200411192	37
0	180	32.826200411192	38
0	184	33.154779696474	39
0	185	33.154779696474	40
0	189	33.652476129213	41
0	190	33.652476129213	42
0	191	34	41
0	197	35.042414981301	42
0	198	35.042414981301	43
0	199	35.5	42
0	205	35.643600714263	43
0	206	35.643600714263	44
0	210	36.983355833066	45
0	211	36.983355833066	46
0	212	37	45
0	218	38.271200583295	46
0	219	38.271200583295	47
0	220	38.5	46
0	226	39.300346674657	47
0	227	39.300346674657	48
0	228	40	47
0	234	40.664515229725	48
0	235	40.664515229725	49
0	236	41.5	48
0	242	42.029203598509	49
0	243	42.029203598509	50
0	244	43	49
0	250	43.03443773301	50
0	251	43.03443773301	51
0	255	44.273249025728	52
0	256	44.273249025728	53
0	257	44.5	52
0	263	45.056424806297	53
0	264	45.056424806297	54
0	268	45.670016900598	55
0	269	45.670016900598	56
0	270	46	55
0	276	46.461293450612	56
0	277	46.461293450612	57
0	281	46.858114613531	58
0	282	46.858114613531	59
0	286	47.415737076263	60
0	287	47.415737076263	61
0	288	47.5	60
0	294	48.008610826047	61
0	295	48.008610826047	62
0	296	49	61
0	302	50.000747139993	62
0	303	50.000747139993	63
0	304	50.5	62
0	310	51.328108038263	63
0	311	51.328108038263	64
0	312	52	63
0	318	52.634232854695	64
0	319	52.634232854695	65
0	320	53.5	64
0	326	54.346423084143	65
0	327	54.346423084143	66
0	328	55	65
0	334	55.659186351974	66
0	335	55.659186351974	67
0	336	56.5	66
0	342	57.059761133723	67
0	343	57.059761133723	68
0	344	58	67
0	350	58.11654793655	68
0	351	58.11654793655	69
0	352	59.5	68
0	358	59.846171168355	69
0	359	59.846171168355	70
0	363	60.910903344413	71
0	364	60.910903344413	72
0	365	61	71
0	371	61.335412660753	72
0	372	61.335412660753	73
0	376	62.1101514152	74
0	377	62.1101514152	75
0	378	62.5	74
0	384	62.612778453087	75
0	385	62.612778453087	76
0	389	63.600388734481	77
0	390	63.600388734481	78
0	391	64	77
0	397	64.774770017763	78
0	398	64.774770017763	79
0	399	65.5	78
0	405	65.939242435012	79
0	406	65.939242435012	80
0	410	66.708400613604	81
0	411	66.708400613604	82
0	412	67	81
0	418	68.029535061043	82
0	419	68.029535061043	83
0	420	68.5	82
0	426	69.957490541226	83
0	427	69.957490541226	84
0	428	70	83
0	434	71.397240799597	84
0	435	71.397240799597	85
0	436	71.5	84
0	442	72.751930789957	85
0	443	72.751930789957	86
0	444	73	85
0	450	73.088380646525	86
0	451	73.088380646525	87
0	455	73.298351393473	88
0	456	73.298351393473	89
0	460	73.896475789291	90
0	461	73.896475789291	91
0	462	74.5	90
0	468	75.307188606797	91
0	469	75.307188606797	92
0	470	76	91
0	476	76.86952358882	92
0	477	76.86952358882	93
0	481	77.319297593465	94
0	482	77.319297593465	95
0	483	77.5	94
0	486	79	93
0	492	79.096021372607	94
0	493	79.096021372607	95
0	497	79.677003751499	96
0	498	79.677003751499	97
0	499	80.5	96
0	505	80.685379740995	97
0	506	80.685379740995	98
0	510	81.512079018745	99
0	511	81.512079018745	100
0	512	82	99
0	515	83.5	98
0	521	84.0197751027	99
0	522	84.0197751027	100
0	523	85	99
0	529	85.852326290788	100
0	530	85.852326290788	101
0	531	86.5	100
0	537	87.156485929589	101
0	538	87.156485929589	102
0	539	88	101
0	545	88.320271193605	102
0	546	88.320271193605	103
0	550	88.695069555015	104
0	551	88.695069555015	105
0	552	89.5	104
0	558	90.05593967622	105
0	559	90.05593967622	106
0	560	91	105
0	566	91.086156458375	106
0	567	91.086156458375	107
0	571	91.851742828748	108
0	572	91.851742828748	109
0	576	92.33601310603	110
0	577	92.33601310603	111
0	578	92.5	110
0	584	92.867067868034	111
0	585	92.867067868034	112
0	586	94	111
0	592	94.507900389018	112
0	593	94.507900389018	113
0	597	94.526250114665	114
0	598	94.526250114665	115
0	602	95.343135340186	116
0	603	95.343135340186	117
0	604	95.5	116
0	607	97	115
0	613	97.134463887038	116
0	614	97.134463887038	117
0	618	97.675240316888	118
0	619	97.675240316888	119
0	620	98.5	118
0	626	98.957493533808	119
0	627	98.957493533808	120
0	628	100	119
0	634	100.466866780133	120
0	635	100.466866780133	121
0	636	101.5	120
0	642	101.642980472626	121
0	643	101.642980472626	122
0	647	102.165454536215	123
0	648	102.165454536215	124
0	649	103	123
0	655	103.90438192155	124
0	656	103.90438192155	125
0	657	104.5	124
0	663	105.031086503475	125
0	664	105.031086503475	126
0	665	106	125
0	671	106.2746439596	126
0	672	106.2746439596	127
0	676	107.228146812619	128
0	677	107.228146812619	129
0	678	107.5	128
0	684	108.506528498607	129
0	685	108.506528498607	130
0	686	109	129
0	692	109.281796346446	130
0	693	109.281796346446	131
0	697	110.082671298902	132
0	698	110.082671298902	133
0	699	110.5	132
0	705	111.619890411541	133
0	706	111.619890411541	134
0	707	112	133
0	713	112.058657169397	134
0	714	112.058657169397	135
0	715	113.5	134
0	721	114.071548629911	135
0	722	114.071548629911	136
0	726	114.349769277062	137
0	727	114.349769277062	138
0	728	115	137
0	734	115.331064979569	138
0	735	115.331064979569	139
0	736	116.5	138
0	742	116.512456932407	139
0	743	116.512456932407	140
0	747	117.226338415639	141
0	748	117.226338415639	142
0	749	118	141
0	755	119.191606235715	142
0	756	119.191606235715	143
0	760	119.387748529163	144
0	761	119.387748529163	145
0	762	119.5	144
0	765	121	143
0	771	121.059002816715	144
0	772	121.059002816715	145
0	776	121.836038779095	146
0	777	121.836038779095	147
0	778	122.5	146
0	784	123.078033115008	147
0	785	123.078033115008	148
0	789	123.246783187939	149
0	790	123.246783187939	150
0	791	124	149
0	797	124.989582839881	150
0	798	124.989582839881	151
0	799	125.5	150
0	805	125.72310848519	151
0	806	125.72310848519	152
0	810	126.741245407039	153
0	811	126.741245407039	154
0	812	127	153
0	818	127.127993306703	154
0	819	127.127993306703	155
0	820	128.5	154
0	826	128.589524937283	155
0	827	128.589524937283	156
0	831	129.049530798138	157
0	832	129.049530798138	158
0	836	129.865662716644	159
0	837	129.865662716644	160
0	838	130	159
0	841	131.5	158
0	847	131.580254393587	159
0	848	131.580254393587	160
0	852	132.735841555943	161
0	853	132.735841555943	162
0	854	133	161
0	860	134.457054245518	162
0	861	134.457054245518	163
0	862	134.5	162
0	868	135.375299295414	163
0	869	135.375299295414	164
0	870	136	163
0	876	136.790301280334	164
0	877	136.790301280334	165
0	878	137.5	164
0	884	137.769833669158	165
0	885	137.769833669158	166
0	886	139	165
0	892	139.019343456308	166
0	893	139.019343456308	167
0	894	140.5	166
0	900	140.618743848984	167
0	901	140.618743848984	168
0	902	142	167
0	908	142.044902048471	168
0	909	142.044902048471	169
0	910	143.5	168
0	916	143.656188196454	169
0	917	143.656188196454	170
0	921	144.755679152347	171
0	922	144.755679152347	172
0	923	145	171
0	929	146.251093452494	172
0	930	146.251093452494	173
0	934	146.312527373992	174
0	935	146.312527373992	175
0	936	146.5	174
0	942	147.74313641606	175
0	943	147.74313641606	176
0	944	148	175
0	950	149.315841309055	176
0	951	149.315841309055	177
0	952	149.5	176
0	958	150.726599802026	177
0	959	150.726599802026	178
0	960	151	177
0	963	152.5	176
0	969	152.669755073069	177
0	970	152.669755073069	178
0	971	154	177
0	977	154.55705114058	178
0	978	154.55705114058	179
0	982	154.668391211694	180
0	983	154.668391211694	181
0	984	155.5	180
0	990	155.724952315644	181
0	991	155.724952315644	182
0	992	157	181
0	998	157.007583655145	182
0	999	157.007583655145	183
0	1003	157.730164325235	184
0	1004	157.730164325235	185
0	1008	158.257260688498	186
0	1009	158.257260688498	187
0	1010	158.5	186
0	1016	158.567011456879	187
0	1017	158.567011456879	188
0	1021	159.582326788701	189
0	1022	159.582326788701	190
0	1023	160	189
0	1029	160.286696504238	190
0	1030	160.286696504238	191
0	1034	160.358097186483	192
0	1035	160.358097186483	193
0	1039	160.82028657721	194
0	1040	160.82028657721	195
0	1041	161.5	194
0	1047	161.9529585551	195
0	1048	161.9529585551	196
0	1052	162.889955143527	197
0	1053	162.889955143527	198
0	1057	162.945457689898	199
0	1058	162.945457689898	200
0	1059	163	199
0	1065	163.676647247651	200
0	1066	163.676647247651	201
0	1067	164.5	200
0	1073	164.829584484225	201
0	1074	164.829584484225	202
0	1078	165.41181775562	203
0	1079	165.41181775562	204
0	1083	165.664171463952	205
0	1084	165.664171463952	206
0	1085	166	205
0	1091	166.174912080463	206
0	1092	166.174912080463	207
0	1096	167.059607729327	208
0	1097	167.059607729327	209
0	1098	167.5	208
0	1104	167.689460719237	209
0	1105	167.689460719237	210
0	1109	168.99709780951	211
0	1110	168.99709780951	212
0	1111	169	211
0	1117	170.027463982512	212
0	1118	170.027463982512	213
0	1119	170.5	212
0	1125	171.855207701025	213
0	1126	171.855207701025	214
0	1127	172	213
0	1133	172.789011977706	214
0	1134	172.789011977706	215
0	1138	173.433369977542	216
0	1139	173.433369977542	217
0	1140	173.5	216
0	1146	174.116357510528	217
0	1147	174.116357510528	218
0	1148	175	217
0	1154	175.637435544302	218
0	1155	175.637435544302	219
0	1159	176.330474295324	220
0	1160	176.330474295324	221
0	1161	176.5	220
0	1167	177.307555253058	221
0	1168	177.307555253058	222
0	1172	177.50999291353	223
0	1173	177.50999291353	224
0	1174	178	223
0	1180	179.232002391011	224
0	1181	179.232002391011	225
0	1182	179.5	224
0	1185	181	223
0	1191	181.059830163978	224
0	1192	181.059830163978	225
0	1193	182.5	224
0	1199	183.371661840212	225
0	1200	183.371661840212	226
0	1201	184	225
0	1207	184.181606351942	226
0	1208	184.181606351942	227
0	1209	185.5	226
0	1215	185.807621960908	227
0	1216	185.807621960908	228
0	1217	187	227
0	1223	187.32982341718	228
0	1224	187.32982341718	229
0	1225	188.5	228
0	1231	188.749153864631	229
0	1232	188.749153864631	230
0	1236	189.539403982914	231
0	1237	189.539403982914	232
0	1238	190	231
0	1244	191.200821157921	232
0	1245	191.200821157921	233
0	1246	191.5	232
0	1252	192.808319517243	233
0	1253	192.808319517243	234
0	1254	193	233
0	1260	193.024399295729	234
0	1261	193.024399295729	235
0	1265	194.244900191573	236
0	1266	194.244900191573	237
0	1267	194.5	236
0	1273	195.599458438018	237
0	1274	195.599458438018	238
0	1275	196	237
0	1281	196.991953026469	238
0	1282	196.991953026469	239
0	1283	197.5	238
0	1289	198.642307393446	239
0	1290	198.642307393446	240
0	1294	198.989686838382	241
0	1295	198.989686838382	242
0	1296	199	241
0	1302	199.991536271908	242
0	1303	199.991536271908	243
0	1307	200.215986299641	244
0	1308	200.215986299641	245
0	1309	200.5	244
0	1315	201.58777600845	245
0	1316	201.58777600845	246
0	1317	202	245
0	1323	202.048369467387	246
0	1324	202.048369467387	247
0	1328	202.256227136238	248
0	1329	202.256227136238	249
0	1333	202.725903363345	250
0	1334	202.725903363345	251
0	1335	203.5	250
0	1341	203.556469091605	251
0	1342	203.556469091605	252
0	1343	205	251
0	1349	205.012621060825	252
0	1350	205.012621060825	253
0	1351	206.5	252
0	1357	206.728773743408	253
0	1358	206.728773743408	254
0	1362	207.222244691859	255
0	1363	207.222244691859	256
0	1364	208	255
0	1370	209.457457983217	256
0	1371	209.457457983217	257
0	1372	209.5	256
0	1378	209.754146092166	257
0	1379	209.754146092166	258
0	1383	210.826109809756	259
0	1384	210.826109809756	260
0	1385	211	259
0	1391	212.386419820624	260
0	1392	212.386419820624	261
0	1396	212.469047237152	262
0	1397	212.469047237152	263
0	1398	212.5	262
0	1401	214	261
0	1407	214.399879335185	262
0	1408	214.399879335185	263
0	1412	214.929052858858	264
0	1413	214.929052858858	265
0	1417	215.186467610315	266
0	1418	215.186467610315	267
0	1419	215.5	266
0	1425	216.966031911313	267
0	1426	216.966031911313	268
0	1427	217	267
0	1433	217.025664208699	268
0	1434	217.025664208699	269
0	1438	217.135970759183	270
0	1439	217.135970759183	271
0	1443	218.328433741074	272
0	1444	218.328433741074	273
0	1445	218.5	272
0	1451	219.94577365326	273
0	1452	219.94577365326	274
0	1453	220	273
0	1459	221.280949960308	274
0	1460	221.280949960308	275
0	1461	221.5	274
0	1467	222.115487822383	275
0	1468	222.115487822383	276
0	1469	223	275
0	1475	223.813506629997	276
0	1476	223.813506629997	277
0	1477	224.5	276
0	1483	225.210461101766	277
0	1484	225.210461101766	278
0	1485	226	277
0	1491	226.21999261477	278
0	1492	226.21999261477	279
0	1493	227.5	278
0	1499	227.705776671224	279
0	1500	227.705776671224	280
0	1504	228.263216430741	281
0	1505	228.263216430741	282
0	1506	229	281
0	1512	229.343729563184	282
0	1513	229.343729563184	283
0	1517	230.108720941158	284
0	1518	230.108720941158	285
0	1519	230.5	284
0	1525	231.788534644475	285
0	1526	231.788534644475	286
0	1527	232	285
0	1533	232.679065795051	286
0	1534	232.679065795051	287
0	1535	233.5	286
0	1541	233.9222526552	287
0	1542	233.9222526552	288
0	1546	233.971757379621	289
0	1547	233.971757379621	290
0	1551	234.717193473894	291
0	1552	234.717193473894	292
0	1553	235	291
0	1559	235.807916010263	292
0	1560	235.807916010263	293
0	1561	236.5	292
0	1567	236.881404914349	293
0	1568	236.881404914349	294
0	1572	237.787431553059	295
0	1573	237.787431553059	296
0	1574	238	295
0	1580	239.428318487103	296
0	1581	239.428318487103	297
0	1582	239.5	296
0	1588	240.368623039999	297
0	1589	240.368623039999	298
0	1590	241	297
0	1596	241.655452561297	298
0	1597	241.655452561297	299
0	1598	242.5	298
0	1601	244	297
0	1607	244.079299022526	298
0	1608	244.079299022526	299
0	1612	244.725832596747	300
0	1613	244.725832596747	301
0	1614	245.5	300
0	1620	245.636062521304	301
0	1621	245.636062521304	302
0	1625	246.435199454777	303
0	1626	246.435199454777	304
0	1627	247	303
0	1633	248.477626162634	304
0	1634	248.477626162634	305
0	1635	248.5	304
0	1641	249.312712958671	305
0	1642	249.312712958671	306
0	1646	249.522524052891	307
0	1647	249.522524052891	308
0	1648	250	307
0	1654	250.542421590475	308
0	1655	250.542421590475	309
0	1656	251.5	308
0	1662	252.081402919012	309
0	1663	252.081402919012	310
0	1664	253	309
0	1670	253.184446326341	310
0	1671	253.184446326341	311
0	1675	253.750828725797	312
0	1676	253.750828725797	313
0	1677	254.5	312
0	1683	255.405319690715	313
0	1684	255.405319690715	314
0	1685	256	313
0	1691	256.885656739845	314
0	1692	256.885656739845	315
0	1693	257.5	314
0	1699	258.39531049815	315
0	1700	258.39531049815	316
0	1704	258.811250584273	317
0	1705	258.811250584273	318
0	1706	259	317
0	1712	260.484642452157	318
0	1713	260.484642452157	319
0	1714	260.5	318
0	1720	261.426361810903	319
0	1721	261.426361810903	320
0	1722	262	319
0	1728	263.07495234595	320
0	1729	263.07495234595	321
0	1730	263.5	320
0	1736	263.707619039854	321
0	1737	263.707619039854	322
0	1738	265	321
0	1744	265.405495609379	322
0	1745	265.405495609379	323
0	1749	265.622255836784	324
0	1750	265.622255836784	325
0	1754	266.411065191314	326
0	1755	266.411065191314	327
0	1756	266.5	326
0	1762	267.178493933959	327
0	1763	267.178493933959	328
0	1767	267.376515015863	329
0	1768	267.376515015863	330
0	1769	268	329
0	1775	269.042647529634	330
0	1776	269.042647529634	331
0	1777	269.5	330
0	1780	271	329
0	1786	271.097186583097	330
0	1787	271.097186583097	331
0	1791	271.305336749013	332
0	1792	271.305336749013	333
0	1793	272.5	332
0	1799	273.007451803645	333
0	1800	273.007451803645	334
0	1804	273.974200760227	335
0	1805	273.974200760227	336
0	1806	274	335
0	1812	275.169863307145	336
0	1813	275.169863307145	337
0	1814	275.5	336
0	1820	275.966694585323	337
0	1821	275.966694585323	338
0	1825	276.451443510551	339
0	1826	276.451443510551	340
0	1827	277	339
0	1833	277.158658962386	340
0	1834	277.158658962386	341
0	1835	278.5	340
0	1841	278.88253839158	341
0	1842	278.88253839158	342
0	1843	280	341
0	1849	280.127149860675	342
0	1850	280.127149860675	343
0	1854	280.717203079917	344
0	1855	280.717203079917	345
0	1856	281.5	344
0	1862	281.705233455435	345
0	1863	281.705233455435	346
0	1867	282.48368244529	347
0	1868	282.48368244529	348
0	1869	283	347
0	1875	283.261700354714	348
0	1876	283.261700354714	349
0	1880	284.018124937804	350
0	1881	284.018124937804	351
0	1882	284.5	350
0	1888	284.974332649894	351
0	1889	284.974332649894	352
0	1893	285.350239254759	353
0	1894	285.350239254759	354
0	1898	285.848559236588	355
0	1899	285.848559236588	356
0	1900	286	355
0	1906	287.003394506914	356
0	1907	287.003394506914	357
0	1908	287.5	356
0	1914	287.629504253902	357
0	1915	287.629504253902	358
0	1916	289	357
0	1922	289.20661834746	358
0	1923	289.20661834746	359
0	1924	290.5	358
0	1930	290.547115926648	359
0	1931	290.547115926648	360
0	1935	291.999360040187	361
0	1936	291.999360040187	362
0	1937	292	361
0	1940	293.5	360
0	1946	293.694658302741	361
0	1947	293.694658302741	362
0	1951	294.084069166862	363
0	1952	294.084069166862	364
0	1956	294.580063250562	365
0	1957	294.580063250562	366
0	1958	295	365
0	1964	295.48874108819	366
0	1965	295.48874108819	367
0	1969	295.678838486624	368
0	1970	295.678838486624	369
0	1974	296.252354248875	370
0	1975	296.252354248875	371
0	1976	296.5	370
0	1982	297.50145554932	371
0	1983	297.50145554932	372
0	1984	298	371
0	1990	298.725865130881	372
0	1991	298.725865130881	373
0	1995	299.468138335863	374
0	1996	299.468138335863	375
0	1997	299.5	374
0	2003	300.378996907338	375
0	2004	300.378996907338	376
0	2005	301	375
0	2011	302.115217083165	376
0	2012	302.115217083165	377
0	2016	302.29389671899	378
0	2017	302.29389671899	379
0	2018	302.5	378
0	2024	302.759340052378	379
0	2025	302.759340052378	380
0	2029	303.021724185188	381
0	2030	303.021724185188	382
0	2031	304	381
0	2037	304.430350232645	382
0	2038	304.430350232645	383
0	2042	305.039384460422	384
0	2043	305.039384460422	385
0	2044	305.5	384
0	2050	306.068591775905	385
0	2051	306.068591775905	386
0	2055	306.76295553041	387
0	2056	306.76295553041	388
0	2057	307	387
0	2063	307.348938727014	388
0	2064	307.348938727014	389
0	2068	308.026282627494	390
0	2069	308.026282627494	391
0	2070	308.5	390
0	2076	309.575789097257	391
0	2077	309.575789097257	392
0	2078	310	391
0	2084	311.178917219913	392
0	2085	311.178917219913	393
0	2089	311.181235166827	394
0	2090	311.181235166827	395
0	2091	311.5	394
0	2097	312.923318278254	395
0	2098	312.923318278254	396
0	2099	313	395
0	2105	314.201928470335	396
0	2106	314.201928470335	397
0	2107	314.5	396
0	2113	314.710281039835	397
0	2114	314.710281039835	398
0	2118	315.314044127116	399
0	2119	315.314044127116	400
0	2120	316	399
0	2123	317.5	398
0	2129	318.107995733313	399
0	2130	318.107995733313	400
0	2134	318.869228289573	401
0	2135	318.869228289573	402
0	2136	319	401
0	2139	320.5	400
0	2145	321.021098830008	401
0	2146	321.021098830008	402
0	2147	322	401
0	2153	323.005486581518	402
0	2154	323.005486581518	403
0	2155	323.5	402
0	2161	323.540453308087	403
0	2162	323.540453308087	404
0	2166	324.484768256828	405
0	2167	324.484768256828	406
0	2168	325	405
0	2174	325.550142177524	406
0	2175	325.550142177524	407
0	2179	326.171292691006	408
0	2180	326.171292691006	409
0	2181	326.5	408
0	2187	327.724158267882	409
0	2188	327.724158267882	410
0	2189	328	409
0	2195	329.073219084056	410
0	2196	329.073219084056	411
0	2197	329.5	410
0	2203	330.472347742682	411
0	2204	330.472347742682	412
0	2205	331	411
0	2211	331.192347625424	412
0	2212	331.192347625424	413
0	2216	331.335296199308	414
0	2217	331.335296199308	415
0	2218	332.5	414
0	2224	332.810524274798	415
0	2225	332.810524274798	416
0	2226	334	415
0	2232	334.359992208462	416
0	2233	334.359992208462	417
0	2237	334.610625555293	418
0	2238	334.610625555293	419
0	2242	335.497971435785	420
0	2243	335.497971435785	421
0	2244	335.5	420
0	2250	336.166885130322	421
0	2251	336.166885130322	422
0	2255	336.813666600036	423
0	2256	336.813666600036	424
0	2257	337	423
0	2260	338.5	422
0	2266	338.65631986002	423
0	2267	338.65631986002	424
0	2268	340	423
0	2274	340.553514008271	424
0	2275	340.553514008271	425
0	2276	341.5	424
0	2282	341.594620991104	425
0	2283	341.594620991104	426
0	2287	342.157420034515	427
0	2288	342.157420034515	428
0	2292	342.827359109522	429
0	2293	342.827359109522	430
0	2294	343	429
0	2297	344.5	428
0	2303	345.046347445642	429
0	2304	345.046347445642	430
0	2308	345.626322721907	431
0	2309	345.626322721907	432
0	2310	346	431
0	2316	347.093928392446	432
0	2317	347.093928392446	433
0	2318	347.5	432
0	2324	348.841991350657	433
0	2325	348.841991350657	434
0	2326	349	433
0	2332	349.734547097608	434
0	2333	349.734547097608	435
0	2337	349.750376789508	436
0	2338	349.750376789508	437
0	2342	350.282037287402	438
0	2343	350.282037287402	439
0	2344	350.5	438
0	2350	351.36138994515	439
0	2351	351.36138994515	440
0	2355	351.436971275174	441
0	2356	351.436971275174	442
0	2360	351.685096367328	443
0	2361	351.685096367328	444
0	2362	352	443
0	2368	352.662424416322	444
0	2369	352.662424416322	445
0	2373	353.153207554503	446
0	2374	353.153207554503	447
0	2375	353.5	446
0	2381	353.8956200692	447
0	2382	353.8956200692	448
0	2383	355	447
0	2389	355.097357177362	448
0	2390	355.097357177362	449
0	2391	356.5	448
0	2397	356.725321272795	449
0	2398	356.725321272795	450
0	2399	358	449
0	2405	358.31831758237	450
0	2406	358.31831758237	451
0	2410	359.405073295125	452
0	2411	359.405073295125	453
0	2412	359.5	452
0	2418	360.21266305786	453
0	2419	360.21266305786	454
0	2420	361	453
0	2426	361.461197378778	454
0	2427	361.461197378778	455
0	2431	362.455465112552	456
0	2432	362.455465112552	457
0	2433	362.5	456
0	2439	363.470870328931	457
0	2440	363.470870328931	458
0	2441	364	457
0	2447	364.485674858338	458
0	2448	364.485674858338	459
0	2452	365.053534492374	460
0	2453	365.053534492374	461
0	2457	365.396802487497	462
0	2458	365.396802487497	463
0	2459	365.5	462
0	2465	366.531186197825	463
0	2466	366.531186197825	464
0	2470	366.935584772301	465
0	2471	366.935584772301	466
0	2472	367	465
0	2478	367.99734194879	466
0	2479	367.99734194879	467
0	2480	368.5	466
0	2486	368.514596519546	467
0	2487	368.514596519546	468
0	2491	369.720182932805	469
0	2492	369.720182932805	470
0	2493	370	469
0	2499	371.325502174554	470
0	2500	371.325502174554	471
0	2501	371.5	470
0	2507	372.76932833205	471
0	2508	372.76932833205	472
0	2509	373	471
0	2515	374.298097817257	472
0	2516	374.298097817257	473
0	2517	374.5	472
0	2523	374.864572058431	473
0	2524	374.864572058431	474
0	2525	376	473
0	2531	376.915936859761	474
0	2532	376.915936859761	475
0	2533	377.5	474
0	2539	377.554535409892	475
0	2540	377.554535409892	476
0	2544	378.547059340296	477
0	2545	378.547059340296	478
0	2549	378.909632403193	479
0	2550	378.909632403193	480
0	2551	379	479
0	2557	379.572313444383	480
0	2558	379.572313444383	481
0	2559	380.5	480
0	2565	381.140750729352	481
0	2566	381.140750729352	482
0	2567	382	481
0	2570	383.5	480
0	2576	383.631142904566	481
0	2577	383.631142904566	482
0	2581	384.644215631359	483
0	2582	384.644215631359	484
0	2583	385	483
0	2589	385.06855115666	484
0	2590	385.06855115666	485
0	2594	386.297159255907	486
0	2595	386.297159255907	487
0	2596	386.5	486
0	2602	386.872316296279	487
0	2603	386.872316296279	488
0	2607	387.732017789763	489
0	2608	387.732017789763	490
0	2609	388	489
0	2615	389.247924972432	490
0	2616	389.247924972432	491
0	2620	389.369645953803	492
0	2621	389.369645953803	493
0	2622	389.5	492
0	2628	390.513485343881	493
0	2629	390.513485343881	494
0	2633	390.839271789802	495
0	2634	390.839271789802	496
0	2635	391	495
0	2641	391.341444191605	496
0	2642	391.341444191605	497
0	2643	392.5	496
0	2649	392.674822319076	497
0	2650	392.674822319076	498
0	2654	393.93802964725	499
0	2655	393.93802964725	500
0	2656	394	499
0	2662	394.633875519924	500
0	2663	394.633875519924	501
0	2664	395.5	500
0	2670	395.656300426565	501
0	2671	395.656300426565	502
0	2675	396.972877754972	503
0	2676	396.972877754972	504
0	2677	397	503
0	2683	398.292582704879	504
0	2684	398.292582704879	505
0	2685	398.5	504
0	2691	399.628734124823	505
0	2692	399.628734124823	506
0	2693	400	505
0	2699	400.657213713807	506
0	2700	400.657213713807	507
0	2704	401.197445382421	508
0	2705	401.197445382421	509
0	2706	401.5	508
0	2709	403	507
0	2715	403.508612379725	508
0	2716	403.508612379725	509
0	2717	404.5	508
0	2723	404.813851184508	509
0	2724	404.813851184508	510
0	2728	405.428801409583	511
0	2729	405.428801409583	512
0	2730	406	511
0	2736	406.615031087051	512
0	2737	406.615031087051	513
0	2738	407.5	512
0	2744	407.903042901474	513
0	2745	407.903042901474	514
0	2749	408.689445850512	515
0	2750	408.689445850512	516
0	2751	409	515
0	2754	410.5	514
0	2760	410.971381325888	515
0	2761	410.971381325888	516
0	2762	412	515
0	2768	412.104716845836	516
0	2769	412.104716845836	517
0	2770	413.5	516
0	2776	413.528818079401	517
0	2777	413.528818079401	518
0	2781	413.628724946582	519
0	2782	413.628724946582	520
0	2786	414.567307678262	521
0	2787	414.567307678262	522
0	2788	415	521
0	2794	416.12642181629	522
0	2795	416.12642181629	523
0	2796	416.5	522
0	2802	416.969116676344	523
0	2803	416.969116676344	524
0	2804	418	523
0	2810	418.159592062346	524
0	2811	418.159592062346	525
0	2815	418.849257187388	526
0	2816	418.849257187388	527
0	2817	419.5	526
0	2823	420.308472303358	527
0	2824	420.308472303358	528
0	2825	421	527
0	2831	421.375801530478	528
0	2832	421.375801530478	529
0	2833	422.5	528
0	2839	422.716587105034	529
0	2840	422.716587105034	530
0	2841	424	529
0	2847	424.243492906735	530
0	2848	424.243492906735	531
0	2849	425.5	530
0	2855	425.881269848947	531
0	2856	425.881269848947	532
0	2857	427	531
0	2863	427.121351847346	532
0	2864	427.121351847346	533
0	2868	427.589923209184	534
0	2869	427.589923209184	535
0	2873	428.467148848148	536
0	2874	428.467148848148	537
0	2875	428.5	536
0	2881	429.536399728523	537
0	2882	429.536399728523	538
0	2883	430	537
0	2889	431.25876273588	538
0	2890	431.25876273588	539
0	2891	431.5	538
0	2897	432.453864107469	539
0	2898	432.453864107469	540
0	2899	433	539
0	2905	433.465452614293	540
0	2906	433.465452614293	541
0	2910	434.024530834628	542
0	2911	434.024530834628	543
0	2912	434.5	542
0	2918	435.178181087872	543
0	2919	435.178181087872	544
0	2923	435.839497672738	545
0	2924	435.839497672738	546
0	2925	436	545
0	2931	437.030307138045	546
0	2932	437.030307138045	547
0	2936	437.186154743404	548
0	2937	437.186154743404	549
0	2938	437.5	548
0	2944	438.107628763226	549
0	2945	438.107628763226	550
0	2949	438.875611560555	551
0	2950	438.875611560555	552
0	2951	439	551
0	2957	440.46329307404	552
0	2958	440.46329307404	553
0	2959	440.5	552
0	2965	441.847521389031	553
0	2966	441.847521389031	554
0	2967	442	553
0	2973	442.83465694828	554
0	2974	442.83465694828	555
0	2978	443.253064239528	556
0	2979	443.253064239528	557
0	2980	443.5	556
0	2986	444.164160435475	557
0	2987	444.164160435475	558
0	2988	445	557
0	2994	445.90605514098	558
0	2995	445.90605514098	559
0	2996	446.5	558
0	3002	447.796923600161	559
0	3003	447.796923600161	560
0	3004	448	559
0	3010	449.165404481163	560
0	3011	449.165404481163	561
0	3012	449.5	560
0	3018	450.454388914415	561
0	3019	450.454388914415	562
0	3023	450.611574076295	563
0	3024	450.611574076295	564
0	3025	451	563
0	3031	451.525836927885	564
0	3032	451.525836927885	565
0	3036	452.35301026241	566
0	3037	452.35301026241	567
0	3038	452.5	566
0	3041	454	565
0	3047	454.324245339867	566
0	3048	454.324245339867	567
0	3052	455.329643959971	568
0	3053	455.329643959971	569
0	3054	455.5	568
0	3060	456.201798834489	569
0	3061	456.201798834489	570
0	3062	457	569
0	3065	458.5	568
0	3071	458.887919169949	569
0	3072	458.887919169949	570
0	3073	460	569
0	3079	460.32237962128	570
0	3080	460.32237962128	571
0	3084	461.082253659791	572
0	3085	461.082253659791	573
0	3086	461.5	572
0	3092	461.977342015603	573
0	3093	461.977342015603	574
0	3094	463	573
0	3100	463.773116284219	574
0	3101	463.773116284219	575
0	3102	464.5	574
0	3108	464.5098959574	575
0	3109	464.5098959574	576
0	3113	465.749253319559	577
0	3114	465.749253319559	578
0	3115	466	577
0	3121	466.080199247862	578
0	3122	466.080199247862	579
0	3123	467.5	578