version 3
run k_MM1_rand-20-20221127-16:03:21-5740
attr configname k_MM1_rand
attr datetime 20221127-16:03:21
attr datetimef 20221127-160321
attr experiment k_MM1_rand
attr inifile omnetpp.ini
attr iterationvars "$time=2.0, $num=5, $0=53542, $1=75335, $2=34542"
attr iterationvarsd time=2.0/num=5/53542/75335/34542
attr iterationvarsf time=2.0,num=5,53542,75335,34542-
attr measurement "$time=2.0, $num=5, $0=53542, $1=75335, $2=34542"
attr network randkMM1
attr processid 5740
attr repetition 0
attr replication #0
attr resultdir results
attr runnumber 20
attr seedset 20
itervar num 5
itervar time 2.0
config description "MM1 module k-times random"
config network randkMM1
config **.source.interArrivalTime "truncnormal(0.5s, 1.5s)"
config **.serviceTime 2.0s
config **.c 5
config **.capacity 10000
config record-eventlog false
config **.scalar-recording true
config **.vector-recording true
config repeat 4
config seed-1-mt 53542
config seed-2-mt 75335
config seed-3-mt 34542
config output-vector-file k_MM1_rand-5-2.0-results/0.vec
config output-scalar-file k_MM1_rand-5-2.0-results/0.sca

vector 0 randkMM1.mm1[3] util:vector ETV
attr interpolationmode none
attr recordingmode vector
attr title resources
vector 1 randkMM1.mm1[4] util:vector ETV
attr interpolationmode none
attr recordingmode vector
attr title resources
vector 2 randkMM1.mm1[1] queueLength:vector ETV
attr interpolationmode none
attr recordingmode vector
attr title "queue length"
vector 3 randkMM1.mm1[1] util:vector ETV
attr interpolationmode none
attr recordingmode vector
attr title resources
vector 4 randkMM1.mm1[0] queueLength:vector ETV
attr interpolationmode none
attr recordingmode vector
attr title "queue length"
vector 5 randkMM1.mm1[2] util:vector ETV
attr interpolationmode none
attr recordingmode vector
attr title resources
vector 6 randkMM1.mm1[0] util:vector ETV
attr interpolationmode none
attr recordingmode vector
attr title resources
vector 7 randkMM1.mm1[2] queueLength:vector ETV
attr interpolationmode none
attr recordingmode vector
attr title "queue length"
vector 8 randkMM1.mm1[4] queueLength:vector ETV
attr interpolationmode none
attr recordingmode vector
attr title "queue length"
vector 9 randkMM1.mm1[3] queueLength:vector ETV
attr interpolationmode none
attr recordingmode vector
attr title "queue length"
0	6	12	1
0	71	26.297711048977	1
0	139	33.206178652348	1
0	151	35.206178652348	1
0	203	42.686266424463	1
0	235	45.204857677318	1
0	260	47.204857677318	1
0	279	49.204857677318	1
0	296	51.204857677318	1
0	310	53.204857677318	1
0	334	55.204857677318	1
0	361	57.204857677318	1
0	378	59.204857677318	1
0	390	61.204857677318	1
0	409	63.204857677318	1
0	421	65.204857677318	1
0	435	67.539854284225	1
0	452	69.956564792143	1
0	465	71.956564792143	1
0	479	74.1961894491	1
0	492	76.1961894491	1
0	506	78.1961894491	1
0	523	81.183181513433	1
0	539	84.700657676006	1
0	548	86.700657676006	1
0	612	92.292765220103	1
0	640	95.706831897859	1
0	654	97.706831897859	1
0	681	99.854371349713	1
0	750	107.939456421282	1
0	770	109.939456421282	1
0	787	113.893951870036	1
0	814	117.792051112963	1
0	825	119.792051112963	1
0	854	121.792051112963	1
0	866	123.792051112963	1
0	885	125.792051112963	1
0	905	127.792051112963	1
0	928	131.180130597453	1
0	1001	142.419915240266	1
0	1059	152.226960509938	1
0	1073	156.664356225073	1
0	1081	158.664356225073	1
0	1092	160.664356225073	1
0	1122	165.294801505417	1
0	1196	179.413773288787	1
0	1213	181.413773288787	1
0	1229	183.413773288787	1
0	1243	185.413773288787	1
0	1268	189.037553908679	1
0	1299	195.315011178179	1
0	1355	203.061693790904	1
0	1375	206.676806794084	1
0	1420	214.688682554105	1
0	1435	216.688682554105	1
0	1444	218.688682554105	1
0	1460	220.688682554105	1
0	1474	222.688682554105	1
0	1490	224.688682554105	1
0	1521	229.264999281951	1
0	1570	237.131753346416	1
0	1601	242.226156942673	1
0	1633	246.496577406298	1
0	1647	248.496577406298	1
0	1669	250.496577406298	1
0	1683	252.496577406298	1
0	1697	254.496577406298	1
0	1717	256.935961284017	1
0	1757	261.461463451872	1
0	1768	263.461463451872	1
0	1788	265.80529272249	1
0	1809	267.80529272249	1
0	1831	269.80529272249	1
0	1850	271.80529272249	1
0	1861	273.80529272249	1
0	1878	275.80529272249	1
0	1900	277.80529272249	1
0	1914	279.80529272249	1
0	1928	281.80529272249	1
0	1936	283.80529272249	1
0	1947	285.80529272249	1
0	1953	287.80529272249	1
0	1961	289.80529272249	1
0	2037	297.690879483179	1
0	2108	307.154373662916	1
0	2142	313.990179275762	1
0	2183	318.959662588515	1
0	2202	320.959662588515	1
0	2214	322.959662588515	1
0	2237	326.104640869316	1
0	2261	328.528244272532	1
0	2273	330.528244272532	1
0	2294	332.802068781322	1
0	2325	338.369581505541	1
0	2354	342.764422907682	1
0	2386	344.843061542279	1
0	2403	346.843061542279	1
0	2422	348.843061542279	1
0	2434	350.843061542279	1
0	2445	352.843061542279	1
0	2475	356.022488901376	1
0	2499	358.022488901376	1
0	2558	366.030312800418	1
0	2582	369.842050503184	1
0	2591	371.842050503184	1
0	2624	374.828408931485	1
0	2643	376.828408931485	1
0	2664	378.828408931485	1
0	2676	380.828408931485	1
0	2679	382.828408931485	1
0	2692	384.828408931485	1
0	2709	386.828408931485	1
0	2739	390.482343234805	1
0	2778	397.729024103188	1
0	2786	399.729024103188	1
0	2800	403.715671610516	1
0	2839	411.561696178772	1
0	2905	419.765073084795	1
0	2918	421.765073084795	1
0	2937	423.899345125972	1
0	2966	425.899345125972	1
0	2981	427.899345125972	1
0	3000	429.899345125972	1
0	3006	431.899345125972	1
0	3014	433.899345125972	1
0	3035	435.899345125972	1
0	3044	437.899345125972	1
0	3063	439.899345125972	1
0	3087	441.899345125972	1
0	3112	443.899345125972	1
0	3129	445.899345125972	1
0	3151	447.899345125972	1
0	3165	449.899345125972	1
0	3220	457.65954706613	1
0	3236	459.65954706613	1
0	3250	461.65954706613	1
0	3264	463.65954706613	1
0	3278	465.65954706613	1
0	3332	471.055141494156	1
0	3349	473.055141494156	1
0	3371	475.055141494156	1
0	3395	477.055141494156	1
0	3409	479.055141494156	1
0	3431	481.055141494156	1
0	3448	483.055141494156	1
0	3467	485.055141494156	1
0	3484	487.055141494156	1
0	3513	489.055141494156	1
0	3530	491.055141494156	1
0	3544	493.055141494156	1
0	3563	495.055141494156	1
0	3582	497.055141494156	1
0	3604	499.055141494156	1
0	3624	501.055141494156	1
0	3641	503.055141494156	1
0	3670	505.055141494156	1
0	3774	515.774194050334	1
0	3794	517.774194050334	1
0	3811	519.774194050334	1
0	3822	521.774194050334	1
0	3846	524.230612299674	1
0	3865	526.230612299674	1
0	3882	528.230612299674	1
0	3899	530.230612299674	1
0	3921	532.230612299674	1
0	3938	534.230612299674	1
0	3995	542.964400357532	1
0	4009	544.964400357532	1
0	4086	556.885526456475	1
0	4118	558.932146846703	1
0	4148	560.932146846703	1
0	4163	562.932146846703	1
0	4193	565.718560764601	1
0	4215	567.718560764601	1
0	4333	588.700918418354	1
0	4365	592.314879063871	1
0	4376	594.314879063871	1
0	4384	596.566698848785	1
0	4450	608.288569381573	1
0	4482	612.300366526442	1
0	4499	614.300366526442	1
0	4529	617.398732696967	1
0	4546	619.398732696967	1
0	4582	624.597769559245	1
0	4651	634.78498440192	1
0	4727	645.597716555873	1
0	4755	649.55518753868	1
0	4780	652.93971769841	1
0	4796	655.830429706155	1
0	4805	657.830429706155	1
0	4829	661.034159638278	1
0	4848	664.532959165358	1
0	4903	674.501127938753	1
0	4925	676.501127938753	1
0	4944	678.501127938753	1
0	4963	680.501127938753	1
0	4972	682.501127938753	1
0	4993	684.501127938753	1
0	5025	686.501127938753	1
0	5076	693.332900942545	1
0	5095	695.332900942545	1
0	5120	697.332900942545	1
0	5145	699.332900942545	1
0	5203	707.90504210989	1
0	5269	718.199592657884	1
0	5299	721.092329897385	1
0	5330	725.165241204419	1
0	5365	729.675592104503	1
0	5383	732.918079487659	1
0	5424	738.914367440103	1
0	5441	741.327628598266	1
0	5462	743.68594552537	1
0	5481	745.68594552537	1
0	5506	749.393598293121	1
0	5590	760.813557904459	1
0	5604	763.515775532471	1
0	5624	766.558261123803	1
0	5649	769.99940027801	1
0	5717	779.933654819336	1
0	5731	781.933654819336	1
0	5750	783.933654819336	1
0	5815	790.158363514122	1
0	5835	792.158363514122	1
0	5849	794.158363514122	1
0	5863	796.158363514122	1
0	5882	798.158363514122	1
0	5899	800.158363514122	1
0	5919	803.09765367544	1
0	5946	806.696515924365	1
0	5967	808.696515924365	1
0	5981	810.696515924365	1
0	6002	812.696515924365	1
0	6024	814.696515924365	1
0	6061	816.696515924365	1
0	6086	818.696515924365	1
0	6106	820.696515924365	1
0	6123	822.696515924365	1
0	6166	827.058377978883	1
0	6186	829.058377978883	1
0	6198	831.058377978883	1
0	6217	834.095890818146	1
0	6228	836.095890818146	1
0	6239	838.095890818146	1
0	6253	840.095890818146	1
0	6282	842.095890818146	1
0	6299	844.095890818146	1
0	6321	846.095890818146	1
0	6338	848.095890818146	1
0	6438	861.312833341328	1
0	6459	863.312833341328	1
0	6481	867.300315029945	1
0	6500	869.300315029945	1
0	6512	871.300315029945	1
0	6531	873.300315029945	1
0	6550	875.300315029945	1
0	6567	877.300315029945	1
0	6586	879.300315029945	1
0	6610	881.300315029945	1
0	6630	883.300315029945	1
0	6647	885.300315029945	1
0	6675	889.646150543106	1
0	6691	891.646150543106	1
0	6707	893.646150543106	1
0	6713	895.646150543106	1
0	6731	897.646150543106	1
0	6753	899.646150543106	1
0	6780	901.646150543106	1
0	6805	903.646150543106	1
0	6827	905.646150543106	1
0	6847	907.646150543106	1
0	6861	909.646150543106	1
0	6921	915.285456644022	1
0	6943	917.341264162895	1
0	7050	931.343850767422	1
0	7080	933.343850767422	1
0	7178	941.049507584006	1
0	7205	943.049507584006	1
0	7220	945.049507584006	1
0	7239	947.049507584006	1
0	7256	949.049507584006	1
0	7265	951.049507584006	1
0	7276	953.049507584006	1
0	7308	955.32855802361	1
0	7325	957.32855802361	1
0	7349	959.32855802361	1
0	7371	961.32855802361	1
0	7388	963.32855802361	1
0	7407	965.32855802361	1
0	7427	967.32855802361	1
0	7438	969.32855802361	1
0	7459	971.534071387786	1
0	7476	973.534071387786	1
0	7493	975.534071387786	1
0	7533	979.369511882497	1
0	7570	982.656798523536	1
0	7590	984.656798523536	1
0	7607	987.071115267792	1
0	7652	991.202430713403	1
0	7682	993.202430713403	1
0	7702	995.202430713403	1
0	7719	997.202430713403	1
0	7752	1002.162794571128	1
0	7860	1013.720975680928	1
0	7873	1015.720975680928	1
0	7884	1017.720975680928	1
0	7895	1019.720975680928	1
0	7909	1021.720975680928	1
0	7964	1030.281944435123	1
0	7983	1032.281944435123	1
0	8013	1035.600473588618	1
0	8027	1037.600473588618	1
0	8036	1039.600473588618	1
0	8060	1042.253554872141	1
0	8096	1046.802675919778	1
0	8134	1051.238270854505	1
0	8156	1053.238270854505	1
0	8165	1055.238270854505	1
0	8222	1061.345114494963	1
0	8244	1063.345114494963	1
0	8266	1065.345114494963	1
0	8280	1067.345114494963	1
0	8296	1069.345114494963	1
0	8310	1071.345114494963	1
0	8332	1073.345114494963	1
0	8344	1075.345114494963	1
0	8357	1077.345114494963	1
0	8386	1080.570167312538	1
0	8405	1082.570167312538	1
0	8440	1084.570167312538	1
0	8457	1086.570167312538	1
0	8477	1088.570167312538	1
0	8489	1090.570167312538	1
0	8508	1092.570167312538	1
0	8530	1094.570167312538	1
0	8546	1096.570167312538	1
0	8557	1098.570167312538	1
0	8576	1100.570167312538	1
0	8593	1102.570167312538	1
0	8640	1109.296273358032	1
0	8805	1125.782732285013	1
0	8814	1127.782732285013	1
0	8825	1129.782732285013	1
0	8841	1131.782732285013	1
0	8858	1133.782732285013	1
0	8869	1135.782732285013	1
0	8893	1138.473111106534	1
0	8943	1146.115873570466	1
0	8957	1148.115873570466	1
0	8987	1151.112936096634	1
0	9004	1154.49506958842	1
0	9017	1156.49506958842	1
0	9077	1168.884733715334	1
0	9088	1170.884733715334	1
0	9102	1172.884733715334	1
0	9140	1176.951439144864	1
0	9157	1178.951439144864	1
0	9195	1181.06297892912	1
0	9230	1184.438117507378	1
0	9252	1186.438117507378	1
0	9264	1188.438117507378	1
0	9286	1191.554357718745	1
0	9305	1193.554357718745	1
0	9332	1195.554357718745	1
0	9344	1197.554357718745	1
0	9455	1218.466331532507	1
0	9541	1233.134254332512	1
0	9635	1247.043978545825	1
0	9652	1249.043978545825	1
0	9686	1254.96273564189	1
0	9724	1258.310623831145	1
0	9751	1262.934304447925	1
0	9776	1265.684942169064	1
0	9852	1272.741930099334	1
0	9882	1274.741930099334	1
0	9897	1276.741930099334	1
0	9944	1284.991401800812	1
0	9955	1286.991401800812	1
0	9969	1288.991401800812	1
0	9999	1292.422852892129	1
0	10018	1294.422852892129	1
0	10037	1296.422852892129	1
0	10057	1298.422852892129	1
0	10082	1302.749988215164	1
0	10104	1305.239719914394	1
0	10139	1310.650150262842	1
0	10164	1313.438733379558	1
0	10273	1327.938530456192	1
0	10290	1329.938530456192	1
0	10314	1331.938530456192	1
0	10323	1333.938530456192	1
0	10337	1335.938530456192	1
0	10351	1337.938530456192	1
0	10362	1339.938530456192	1
0	10370	1341.938530456192	1
0	10386	1343.938530456192	1
0	10403	1345.938530456192	1
0	10422	1347.938530456192	1
0	10439	1349.938530456192	1
0	10453	1351.938530456192	1
0	10484	1357.702266626604	1
0	10497	1359.702266626604	1
0	10648	1380.956004818156	1
0	10665	1383.628509899019	1
0	10682	1385.926725242596	1
0	10698	1389.553349721762	1
0	10736	1394.311234836504	1
0	10750	1396.311234836504	1
0	10797	1407.687061760969	1
0	10808	1409.994039857771	1
0	10816	1411.994039857771	1
0	10838	1414.331792702771	1
0	10855	1416.331792702771	1
0	10966	1429.150709324122	1
0	11043	1436.139348442704	1
0	11057	1438.139348442704	1
0	11086	1442.018741435653	1
0	11116	1444.018741435653	1
0	11141	1446.018741435653	1
0	11161	1448.018741435653	1
0	11181	1450.018741435653	1
0	11198	1452.018741435653	1
0	11213	1455.43490196168	1
0	11280	1464.516888266802	1
0	11339	1470.436137114525	1
0	11359	1472.436137114525	1
0	11409	1478.942916196443	1
0	11468	1487.822556288458	1
0	11506	1490.003618547067	1
0	11554	1495.765574736693	1
0	11593	1498.021019277955	1
0	11610	1500.021019277955	1
0	11642	1502.021019277955	1
0	11657	1504.021019277955	1
0	11669	1506.021019277955	1
0	11691	1510.118157946046	1
0	11732	1515.066112746588	1
0	11769	1517.674323802201	1
0	11800	1522.046714883772	1
0	11844	1527.827383466363	1
0	11861	1529.827383466363	1
0	11877	1531.827383466363	1
0	11896	1533.827383466363	1
0	11918	1535.827383466363	1
0	11934	1537.827383466363	1
0	11954	1539.827383466363	1
0	11960	1541.827383466363	1
0	11971	1543.827383466363	1
0	12107	1560.108205521829	1
0	12124	1562.108205521829	1
0	12138	1564.108205521829	1
0	12155	1566.108205521829	1
0	12276	1580.120045813347	1
0	12287	1582.120045813347	1
0	12306	1584.120045813347	1
0	12342	1588.55237808165	1
0	12404	1594.694824497695	1
0	12491	1602.843854666656	1
0	12521	1604.843854666656	1
0	12541	1606.843854666656	1
0	12556	1608.843854666656	1
0	12576	1612.805771279923	1
0	12600	1616.394073605042	1
0	12627	1618.394073605042	1
0	12649	1620.394073605042	1
0	12663	1622.394073605042	1
0	12687	1624.394073605042	1
0	12707	1626.394073605042	1
0	12724	1628.394073605042	1
0	12736	1630.394073605042	1
0	12770	1635.019657080699	1
0	12795	1637.019657080699	1
0	12809	1639.019657080699	1
0	12831	1641.019657080699	1
0	12881	1647.897506526585	1
0	12975	1660.627490500617	1
0	12991	1662.985780564568	1
0	13019	1666.937748822484	1
0	13057	1672.202023828226	1
0	13088	1674.6133044705	1
0	13111	1676.6133044705	1
0	13133	1678.6133044705	1
0	13215	1687.066837176569	1
0	13249	1689.935627221869	1
0	13261	1691.935627221869	1
0	13293	1694.428253344502	1
0	13332	1700.499043167165	1
0	13359	1704.575202419631	1
0	13400	1709.405091762118	1
0	13444	1714.098173924998	1
0	13461	1716.098173924998	1
0	13475	1718.098173924998	1
0	13486	1720.098173924998	1
0	13505	1722.098173924998	1
0	13527	1724.098173924998	1
0	13551	1726.098173924998	1
0	13575	1728.098173924998	1
0	13595	1730.098173924998	1
0	13617	1732.098173924998	1
0	13631	1734.098173924998	1
0	13642	1736.098173924998	1
0	13666	1738.098173924998	1
0	13678	1740.098173924998	1
0	13692	1742.098173924998	1
0	13708	1744.098173924998	1
0	13727	1746.098173924998	1
0	13746	1748.098173924998	1
0	13763	1750.098173924998	1
0	13782	1752.098173924998	1
0	13814	1754.098173924998	1
0	13836	1756.098173924998	1
0	13853	1758.098173924998	1
0	13870	1760.098173924998	1
0	13892	1762.098173924998	1
0	13912	1764.098173924998	1
0	13962	1770.225627976332	1
0	13978	1772.225627976332	1
0	14014	1778.526795340105	1
0	14050	1782.23365958793	1
0	14070	1784.37677444985	1
0	14119	1795.196142839635	1
0	14153	1802.768729000946	1
0	14175	1809.471870084955	1
0	14217	1815.770618412812	1
0	14234	1817.770618412812	1
0	14245	1819.770618412812	1
0	14291	1828.607055634126	1
0	14320	1833.92327585308	1
0	14346	1836.290400625597	1
0	14363	1838.290400625597	1
0	14377	1840.290400625597	1
0	14423	1844.43684964177	1
0	14445	1846.606224407508	1
0	14469	1849.354322242693	1
0	14528	1857.81880472094	1
0	14563	1860.657006770187	1
0	14575	1862.657006770187	1
0	14592	1864.657006770187	1
0	14604	1866.657006770187	1
0	14626	1871.00923923998	1
0	14674	1880.646425867244	1
0	14737	1887.979265572821	1
0	14751	1889.979265572821	1
0	14774	1894.808850151076	1
0	14795	1897.379786131179	1
0	14811	1899.379786131179	1
0	14828	1901.379786131179	1
0	14842	1903.379786131179	1
0	14883	1908.809671330982	1
0	14902	1911.640449555061	1
0	14922	1914.085053825517	1
0	14933	1916.54469653887	1
0	14960	1920.156031553415	1
0	14985	1923.726975949654	1
0	15043	1935.533853781721	1
0	15076	1941.184158193285	1
0	15108	1947.715019083881	1
0	15122	1949.715019083881	1
0	15144	1951.715019083881	1
0	15290	1970.769758849067	1
0	15317	1972.900238975216	1
0	15354	1976.537865235934	1
0	15402	1982.217074739874	1
0	15470	1989.242409436443	1
0	15492	1991.242409436443	1
0	15536	1995.288184087057	1
0	15566	1997.288184087057	1
0	15598	1999.288184087057	1
0	15625	2001.288184087057	1
0	15645	2003.288184087057	1
0	15662	2005.288184087057	1
0	15679	2007.288184087057	1
0	15701	2009.288184087057	1
0	15762	2017.510562119852	1
0	15792	2021.212716139409	1
0	15807	2023.212716139409	1
0	15862	2032.347787864706	1
0	15904	2036.348791805493	1
0	15938	2038.788796382004	1
0	15950	2040.788796382004	1
0	15961	2042.788796382004	1
0	15975	2044.788796382004	1
0	15999	2047.261129184544	1
0	16021	2049.261129184544	1
0	16038	2051.261129184544	1
0	16051	2053.261129184544	1
0	16068	2055.261129184544	1
0	16089	2057.261129184544	1
0	16104	2059.261129184544	1
0	16120	2061.261129184544	1
0	16139	2063.261129184544	1
0	16156	2065.261129184544	1
0	16172	2067.261129184544	1
0	16178	2069.261129184544	1
0	16189	2071.261129184544	1
0	16218	2073.261129184544	1
0	16235	2075.261129184544	1
0	16263	2077.977954073544	1
0	16282	2079.977954073544	1
0	16309	2081.977954073544	1
0	16326	2083.977954073544	1
0	16342	2085.977954073544	1
0	16367	2087.977954073544	1
0	16396	2089.977954073544	1
0	16416	2091.977954073544	1
0	16436	2093.977954073544	1
0	16447	2095.977954073544	1
0	16458	2097.977954073544	1
0	16480	2099.977954073544	1
0	16502	2101.977954073544	1
0	16524	2103.977954073544	1
0	16541	2105.977954073544	1
0	16557	2107.977954073544	1
0	16574	2109.977954073544	1
0	16593	2111.977954073544	1
0	16614	2117.256446375687	1
0	16659	2122.146661942628	1
0	16678	2124.146661942628	1
0	16697	2126.146661942628	1
0	16711	2128.146661942628	1
0	16728	2130.146661942628	1
0	16737	2132.146661942628	1
0	16764	2134.744227475914	1
0	16780	2136.744227475914	1
0	16797	2138.744227475914	1
0	16827	2141.716796548723	1
0	16907	2159.273590986688	1
0	16926	2161.273590986688	1
0	16962	2165.611122229055	1
0	17016	2170.452731912368	1
0	17028	2172.452731912368	1
0	17044	2174.452731912368	1
0	17061	2176.452731912368	1
0	17075	2178.452731912368	1
0	17089	2181.12920202972	1
0	17121	2185.788007482547	1
0	17135	2187.788007482547	1
0	17154	2189.788007482547	1
0	17163	2191.788007482547	1
0	17179	2193.788007482547	1
0	17204	2196.708410998137	1
0	17243	2201.219663207213	1
0	17292	2207.480431597165	1
0	17308	2209.480431597165	1
0	17330	2211.480431597165	1
0	17357	2213.995352999379	1
0	17407	2219.837470432783	1
0	17421	2221.837470432783	1
0	17450	2223.837470432783	1
0	17467	2225.837470432783	1
0	17483	2227.837470432783	1
0	17502	2229.837470432783	1
0	17569	2237.266629156873	1
0	17595	2239.827802803034	1
0	17622	2244.265091909949	1
0	17684	2251.399726689999	1
0	17755	2259.726153903988	1
0	17816	2268.548421637917	1
0	17826	2271.385635025635	1
0	17847	2273.952153367306	1
0	17856	2275.952153367306	1
0	17867	2277.952153367306	1
0	17883	2279.952153367306	1
0	17900	2281.952153367306	1
0	17914	2284.094242322207	1
0	17925	2287.038535269603	1
0	17933	2289.038535269603	1
0	17957	2292.635649830931	1
0	17990	2295.666337490593	1
0	18025	2299.752963751586	1
0	18037	2301.752963751586	1
0	18053	2303.752963751586	1
0	18070	2305.752963751586	1
0	18086	2307.969658194278	1
0	18121	2313.05639022487	1
0	18164	2317.604403971119	1
0	18215	2324.870183555595	1
0	18237	2326.870183555595	1
0	18257	2328.870183555595	1
0	18274	2330.870183555595	1
0	18290	2332.870183555595	1
0	18310	2335.784371095701	1
0	18348	2340.43775382836	1
0	18375	2343.821577817274	1
0	18394	2345.821577817274	1
0	18411	2347.821577817274	1
0	18422	2349.821577817274	1
0	18436	2351.821577817274	1
0	18469	2356.373872459794	1
0	18483	2358.373872459794	1
0	18497	2361.652278831728	1
0	18510	2363.652278831728	1
0	18521	2365.652278831728	1
0	18532	2367.652278831728	1
0	18543	2369.652278831728	1
0	18557	2371.652278831728	1
0	18563	2373.652278831728	1
0	18590	2376.519277282249	1
0	18679	2388.305015426714	1
0	18691	2390.305015426714	1
0	18713	2392.305015426714	1
0	18725	2394.305015426714	1
0	18749	2396.911630931636	1
0	18776	2399.878882597012	1
0	18826	2406.938520727399	1
0	18838	2408.938520727399	1
0	18898	2417.073163420917	1
0	18917	2419.073163420917	1
0	18936	2421.073163420917	1
0	18953	2423.073163420917	1
0	18972	2425.639502753504	1
0	18991	2427.639502753504	1
0	19014	2429.972045544586	1
0	19033	2432.393305157935	1
0	19140	2452.225930533091	1
0	19168	2454.915379317423	1
0	19182	2456.915379317423	1
0	19201	2458.915379317423	1
0	19235	2464.922401378653	1
0	19260	2467.331717833592	1
0	19277	2469.331717833592	1
0	19311	2471.331717833592	1
0	19331	2473.331717833592	1
0	19351	2475.331717833592	1
0	19389	2479.184837850797	1
0	19458	2486.659290196242	1
0	19548	2497.830859241661	1
0	19590	2502.816349247455	1
0	19639	2509.691444030417	1
0	19651	2511.691444030417	1
0	19728	2521.231839471917	1
0	19747	2523.231839471917	1
0	19759	2525.231839471917	1
0	19814	2534.290607360164	1
0	19837	2537.450444885245	1
0	19929	2551.655254266091	1
0	19986	2557.521682427385	1
0	20034	2564.030865050241	1
0	20078	2568.817142406395	1
0	20097	2571.601047119028	1
0	20129	2574.117404585903	1
0	20144	2576.117404585903	1
0	20223	2586.110456803569	1
0	20283	2594.314232291641	1
0	20295	2596.314232291641	1
0	20321	2600.146619781027	1
0	20348	2603.90774827539	1
0	20388	2608.83599583522	1
0	20405	2610.83599583522	1
0	20429	2613.772684611249	1
0	20438	2615.772684611249	1
0	20536	2626.174116762383	1
0	20550	2628.174116762383	1
0	20564	2630.174116762383	1
0	20598	2634.093641030076	1
0	20624	2636.450846382259	1
0	20648	2638.450846382259	1
0	20674	2641.704993264941	1
0	20693	2643.764544934745	1
0	20720	2645.764544934745	1
0	20737	2647.764544934745	1
0	20759	2649.764544934745	1
0	20771	2651.764544934745	1
0	20886	2669.297767616835	1
0	20905	2671.297767616835	1
0	20944	2676.315979060882	1
0	20994	2683.032162754025	1
0	21018	2685.032162754025	1
0	21032	2687.032162754025	1
0	21058	2689.032162754025	1
0	21085	2691.032162754025	1
0	21105	2693.032162754025	1
0	21117	2695.032162754025	1
0	21133	2697.032162754025	1
0	21147	2699.032162754025	1
0	21189	2702.048203810928	1
0	21209	2704.048203810928	1
0	21225	2708.209607274866	1
0	21248	2710.209607274866	1
0	21270	2712.209607274866	1
0	21292	2714.209607274866	1
0	21304	2716.209607274866	1
0	21318	2718.209607274866	1
0	21332	2720.209607274866	1
0	21352	2724.79095780766	1
0	21411	2731.23985178103	1
0	21450	2734.291261858203	1
0	21540	2745.476489867448	1
0	21554	2747.476489867448	1
0	21579	2750.165111847405	1
0	21599	2752.657722801177	1
0	21629	2756.832893933964	1
0	21684	2761.592430192727	1
0	21699	2763.592430192727	1
0	21723	2765.592430192727	1
0	21743	2767.592430192727	1
0	21755	2769.592430192727	1
0	21771	2771.592430192727	1
0	21787	2773.592430192727	1
0	21835	2782.790715449544	1
0	21841	2784.790715449544	1
0	21865	2788.435818636775	1
0	21907	2793.626461511348	1
0	21934	2797.368801273813	1
0	21961	2801.483584990613	1
0	21979	2804.334598602905	1
0	22002	2806.449923660917	1
0	22019	2808.449923660917	1
0	22035	2810.449923660917	1
0	22044	2812.449923660917	1
0	22063	2814.559751993842	1
0	22104	2819.218019894059	1
0	22192	2827.643867836497	1
0	22231	2831.402472096989	1
0	22258	2834.23361422686	1
0	22313	2839.59025864128	1
0	22342	2843.682988512249	1
0	22350	2845.682988512249	1
0	22380	2850.351130067627	1
0	22446	2862.988583149191	1
0	22473	2869.992542248207	1
0	22494	2871.992542248207	1
0	22511	2873.992542248207	1
0	22540	2875.992542248207	1
0	22560	2877.992542248207	1
0	22580	2879.992542248207	1
0	22615	2882.644673750853	1
0	22650	2884.644673750853	1
0	22665	2886.644673750853	1
0	22681	2888.644673750853	1
0	22708	2890.644673750853	1
0	22728	2892.644673750853	1
0	22745	2894.644673750853	1
0	22764	2896.644673750853	1
0	22778	2898.644673750853	1
0	22802	2900.644673750853	1
0	22816	2902.644673750853	1
0	22850	2906.395168753901	1
0	22961	2923.90328283987	1
0	22976	2925.90328283987	1
0	22995	2927.90328283987	1
0	23060	2934.147939393043	1
0	23085	2936.147939393043	1
0	23094	2938.147939393043	1
0	23110	2940.147939393043	1
0	23135	2942.147939393043	1
0	23152	2944.147939393043	1
0	23168	2947.096388583023	1
0	23240	2960.624522109063	1
0	23270	2963.841586957543	1
0	23315	2972.806576569615	1
0	23353	2981.394577741945	1
0	23448	2995.794194650761	1
0	23478	2997.794194650761	1
0	23533	3003.246312809584	1
0	23630	3019.153869389217	1
0	23670	3025.416281387926	1
0	23737	3034.799132739885	1
0	23759	3037.105564279038	1
0	23783	3039.105564279038	1
0	23800	3041.105564279038	1
0	23817	3043.105564279038	1
0	23856	3046.81767947363	1
0	23875	3048.81767947363	1
0	23893	3050.985542065168	1
0	23951	3060.766243534264	1
0	24042	3072.440085296904	1
0	24119	3079.855562015205	1
0	24144	3081.855562015205	1
0	24171	3083.855562015205	1
0	24180	3085.855562015205	1
0	24201	3087.855562015205	1
0	24243	3091.38018224985	1
0	24252	3093.38018224985	1
0	24291	3097.566857945193	1
0	24328	3100.660946419459	1
0	24350	3102.660946419459	1
0	24370	3104.660946419459	1
0	24382	3106.660946419459	1
0	24390	3108.660946419459	1
0	24406	3110.660946419459	1
0	24499	3124.243328042949	1
0	24560	3131.893030360994	1
0	24584	3134.786696238248	1
0	24604	3136.786696238248	1
0	24626	3139.774982095807	1
0	24650	3141.774982095807	1
0	24670	3143.774982095807	1
0	24689	3145.774982095807	1
0	24706	3147.774982095807	1
0	24717	3149.774982095807	1
0	24723	3151.774982095807	1
0	24750	3156.300102311559	1
0	24800	3164.029609622068	1
0	24811	3166.029609622068	1
0	24825	3168.029609622068	1
0	24836	3170.029609622068	1
0	24857	3172.05097086354	1
0	24898	3179.034418021478	1
0	24938	3183.330954891641	1
0	24966	3191.382314970349	1
0	24991	3193.759699247903	1
0	25003	3195.759699247903	1
0	25041	3199.09186611155	1
0	25074	3202.412539957582	1
0	25091	3204.412539957582	1
0	25118	3207.01651606049	1
0	25132	3209.01651606049	1
0	25146	3211.01651606049	1
0	25175	3213.01651606049	1
0	25195	3215.01651606049	1
0	25260	3220.912850392149	1
0	25282	3222.912850392149	1
0	25291	3224.912850392149	1
0	25315	3226.912850392149	1
0	25337	3228.912850392149	1
0	25365	3231.962298885611	1
0	25395	3235.648353670019	1
0	25409	3237.648353670019	1
0	25462	3248.722618315145	1
0	25490	3253.066147236063	1
0	25534	3259.902760926031	1
0	25555	3261.997207471025	1
0	25564	3263.997207471025	1
0	25649	3272.404831938294	1
0	25668	3274.404831938294	1
0	25690	3276.404831938294	1
0	25704	3278.404831938294	1
0	25833	3296.449814169168	1
0	25850	3298.449814169168	1
0	25918	3311.211681298733	1
0	25935	3313.211681298733	1
0	25984	3322.113199898027	1
0	26006	3324.113199898027	1
0	26026	3326.113199898027	1
0	26078	3335.93512353162	1
0	26120	3343.141217426376	1
0	26186	3354.572629456013	1
0	26207	3356.730410734119	1
0	26226	3358.730410734119	1
0	26238	3360.730410734119	1
0	26249	3362.730410734119	1
0	26270	3364.740046735208	1
0	26304	3369.139819403868	1
0	26316	3371.782547292197	1
0	26379	3383.06018160409	1
0	26392	3385.06018160409	1
0	26411	3387.127891799556	1
0	26425	3389.127891799556	1
0	26507	3398.929800593038	1
0	26593	3406.174820047935	1
0	26610	3408.174820047935	1
0	26627	3410.174820047935	1
0	26644	3412.174820047935	1
0	26663	3414.174820047935	1
0	26683	3416.174820047935	1
0	26712	3418.174820047935	1
0	26855	3434.842774783369	1
0	26864	3436.842774783369	1
0	26883	3438.842774783369	1
0	26914	3444.376103586677	1
0	26936	3446.919141533042	1
0	26972	3452.597982642416	1
0	27013	3457.246728303621	1
0	27041	3460.711581602191	1
0	27057	3462.936975816441	1
0	27110	3471.371184990606	1
0	27127	3474.298093902803	1
0	27180	3478.750730190022	1
0	27200	3480.750730190022	1
0	27249	3486.4218857451	1
0	27266	3488.4218857451	1
0	27280	3490.4218857451	1
0	27297	3492.978244002814	1
0	27326	3495.581689160754	1
0	27338	3497.581689160754	1
0	27357	3500.933839992092	1
0	27373	3502.933839992092	1
0	27389	3504.933839992092	1
0	27413	3506.933839992092	1
0	27433	3508.933839992092	1
0	27458	3512.412655389777	1
0	27498	3517.14428547886	1
0	27527	3519.973942512373	1
0	27551	3521.973942512373	1
0	27578	3523.973942512373	1
0	27595	3525.973942512373	1
0	27614	3527.973942512373	1
0	27628	3529.973942512373	1
0	27647	3531.973942512373	1
0	27662	3533.973942512373	1
0	27676	3535.973942512373	1
0	27699	3539.801028225851	1
0	27756	3550.755900327842	1
0	27772	3552.879109966445	1
0	27868	3565.435208764809	1
0	27890	3568.717168157287	1
0	27917	3570.717168157287	1
0	27939	3572.717168157287	1
0	27953	3574.717168157287	1
0	27975	3576.717168157287	1
0	28024	3580.450357304611	1
0	28038	3582.450357304611	1
0	28057	3584.450357304611	1
0	28079	3586.450357304611	1
0	28108	3588.450357304611	1
0	28125	3590.450357304611	1
0	28147	3592.450357304611	1
0	28171	3594.450357304611	1
0	28186	3596.450357304611	1
0	28205	3598.450357304611	1
0	28227	3600.450357304611	1
0	28236	3602.450357304611	1
0	28246	3604.450357304611	1
0	28252	3606.450357304611	1
0	28258	3608.450357304611	1
1	7	12	1
1	144	34.453395750985	1
1	156	36.453395750985	1
1	197	41.351540992383	1
1	219	43.351540992383	1