version 3
run k_MM1_rand-21-20221127-16:03:21-5740
attr configname k_MM1_rand
attr datetime 20221127-16:03:21
attr datetimef 20221127-160321
attr experiment k_MM1_rand
attr inifile omnetpp.ini
attr iterationvars "$time=2.0, $num=5, $0=45732, $1=35463, $2=67563"
attr iterationvarsd time=2.0/num=5/45732/35463/67563
attr iterationvarsf time=2.0,num=5,45732,35463,67563-
attr measurement "$time=2.0, $num=5, $0=45732, $1=35463, $2=67563"
attr network randkMM1
attr processid 5740
attr repetition 1
attr replication #1
attr resultdir results
attr runnumber 21
attr seedset 21
itervar num 5
itervar time 2.0
config description "MM1 module k-times random"
config network randkMM1
config **.source.interArrivalTime "truncnormal(0.5s, 1.5s)"
config **.serviceTime 2.0s
config **.c 5
config **.capacity 10000
config record-eventlog false
config **.scalar-recording true
config **.vector-recording true
config repeat 4
config seed-1-mt 45732
config seed-2-mt 35463
config seed-3-mt 67563
config output-vector-file k_MM1_rand-5-2.0-results/1.vec
config output-scalar-file k_MM1_rand-5-2.0-results/1.sca

vector 0 randkMM1.mm1[4] queueLength:vector ETV
attr interpolationmode none
attr recordingmode vector
attr title "queue length"
vector 1 randkMM1.mm1[4] util:vector ETV
attr interpolationmode none
attr recordingmode vector
attr title resources
vector 2 randkMM1.mm1[3] util:vector ETV
attr interpolationmode none
attr recordingmode vector
attr title resources
vector 3 randkMM1.mm1[2] util:vector ETV
attr interpolationmode none
attr recordingmode vector
attr title resources
vector 4 randkMM1.mm1[0] queueLength:vector ETV
attr interpolationmode none
attr recordingmode vector
attr title "queue length"
vector 5 randkMM1.mm1[3] queueLength:vector ETV
attr interpolationmode none
attr recordingmode vector
attr title "queue length"
vector 6 randkMM1.mm1[0] util:vector ETV
attr interpolationmode none
attr recordingmode vector
attr title resources
vector 7 randkMM1.mm1[1] util:vector ETV
attr interpolationmode none
attr recordingmode vector
attr title resources
vector 8 randkMM1.mm1[1] queueLength:vector ETV
attr interpolationmode none
attr recordingmode vector
attr title "queue length"
vector 9 randkMM1.mm1[2] queueLength:vector ETV
attr interpolationmode none
attr recordingmode vector
attr title "queue length"
0	5	10	1
0	11	12	0
0	102	22.488792086916	1
0	110	23.880708658168	0
0	171	33.907023145014	1
0	172	33.907023145014	2
0	181	35.130106604052	1
0	203	37.130106604052	0
0	209	37.370530905184	1
0	230	39.130106604052	0
0	308	49.384656396339	1
0	311	49.523609351884	0
0	372	56.15165606596	1
0	376	56.362892848695	2
0	390	58.15165606596	1
0	397	58.930879955851	2
0	407	60.15165606596	1
0	427	61.713432729178	2
0	428	62.15165606596	1
0	437	64.15165606596	0
0	622	86.301354184596	1
0	627	87.200724259177	0
0	707	96.072465136683	1
0	719	97.269643923141	0
0	766	104.221633786582	1
0	770	104.770393433952	2
0	783	106.221633786582	1
0	795	107.86004598035	2
0	800	108.221633786582	1
0	807	108.598667037318	2
0	814	110.221633786582	1
0	825	112.221633786582	0
0	836	112.418660736814	1
0	844	114.221633786582	0
0	912	123.096656780789	1
0	922	123.555926751312	0
0	937	124.463948379086	1
0	941	124.47791167434	2
0	950	125.071929941878	3
0	954	125.555926751312	2
0	971	126.90352195975	3
0	976	127.555926751312	2
0	993	129.555926751312	1
0	1016	131.207967577265	2
0	1017	131.207967577265	3
0	1018	131.555926751312	2
0	1033	133.555926751312	1
0	1047	135.555926751312	0
0	1053	135.654030694083	1
0	1054	135.654030694083	2
0	1069	137.555926751312	1
0	1078	139.555926751312	0
0	1084	139.817007272431	1
0	1090	140.143109552634	2
0	1099	141.555926751312	1
0	1111	143.555926751312	0
0	1120	144.387160786025	1
0	1125	145.555926751312	0
0	1428	186.229433920953	1
0	1429	186.726382047326	0
0	1439	186.8010604781	1
0	1446	188.726382047326	0
0	1461	190.275598324718	1
0	1462	190.275598324718	2
0	1468	190.726382047326	1
0	1479	192.726382047326	0
0	1492	193.106561092271	1
0	1496	194.726382047326	0
0	1596	204.32794628752	1
0	1608	206.074177624324	0
0	1724	220.459575944444	1
0	1732	221.607296067571	0
0	1879	239.909367591836	1
0	1891	241.778890616866	0
0	1903	242.845245358592	1
0	1908	243.778890616866	0
0	1921	245.110398888478	1
0	1922	245.778890616866	0
0	1938	246.490893845345	1
0	1943	247.778890616866	0
0	1959	248.925427413416	1
0	1960	249.778890616866	0
0	2031	258.845571450978	1
0	2038	260.845571450978	0
0	2044	261.076055187164	1
0	2052	262.743055795843	2
0	2054	262.845571450978	1
0	2068	264.845571450978	0
0	2077	266.236178109552	1
0	2079	266.845571450978	0
0	2164	275.855689658617	1
0	2169	276.874600903542	0
0	2181	278.26616349734	1
0	2186	278.874600903542	0
0	2221	284.320142487285	1
0	2225	285.162202112116	2
0	2231	286.259612946208	3
0	2235	286.320142487285	2
0	2252	288.320142487285	1
0	2266	290.320142487285	0
0	2272	290.599209875859	1
0	2287	292.320142487285	0
0	2413	308.276999730291	1
0	2415	309.127327951059	0
0	2424	310.01024773271	1
0	2432	311.127327951059	0
0	2485	319.766884295967	1
0	2486	320.870346479147	0
0	2653	351.512916043421	1
0	2657	353.512916043421	0
0	2668	355.056811327753	1
0	2670	355.512916043421	0
0	2715	361.807501647348	1
0	2718	362.96046064081	0
0	2726	363.466998922252	1
0	2731	364.96046064081	0
0	2738	365.097688695656	1
0	2752	366.96046064081	0
0	2770	368.358548969383	1
0	2771	368.358548969383	2
0	2772	368.96046064081	1
0	2783	370.96046064081	0
0	2801	372.220607868364	1
0	2802	372.96046064081	0
0	2845	378.949855468028	1
0	2846	379.395427620336	0
0	2896	385.525343443794	1
0	2898	386.495385942961	0
0	2905	386.792815632561	1
0	2915	387.846730561503	2
0	2917	388.495385942961	1
0	2923	390.495385942961	0
0	2962	395.755932918382	1
0	2967	397.464747412146	0
0	2976	398.999843979109	1
0	2986	399.464747412146	0
0	2993	400.006447616375	1
0	3003	401.464747412146	0
0	3012	402.311466272021	1
0	3022	403.464747412146	0
0	3028	404.384655936671	1
0	3044	405.464747412146	0
0	3087	411.463497752672	1
0	3099	413.463497752672	0
0	3173	420.161988758448	1
0	3181	420.985835379241	2
0	3183	421.04813575833	1
0	3203	423.04813575833	0
0	3221	424.771713843884	1
0	3223	425.04813575833	0
0	3266	430.207370453964	1
0	3267	430.457530478795	0
0	3274	431.424769705259	1
0	3281	432.457530478795	0
0	3316	439.516590511929	1
0	3322	441.516590511929	0
0	3411	456.643487700632	1
0	3412	457.021123482907	0
0	3451	461.016005482233	1
0	3459	462.282535736592	0
0	3579	477.455481914253	1
0	3596	479.367534039902	0
0	3672	491.99768843056	1
0	3673	491.99768843056	2
0	3677	492.568555908743	3
0	3687	493.035569798557	4
0	3690	493.516950751555	3
0	3698	493.613383891628	4
0	3711	495.516950751555	3
0	3722	497.516950751555	2
0	3742	498.748179521933	3
0	3746	499.516950751555	2
0	3752	500.300608573298	3
0	3768	501.516950751555	2
0	3790	503.516950751555	1
0	3810	505.516950751555	0
0	3966	523.510616118359	1
0	3971	524.055934510019	2
0	3984	524.996635371276	1
0	3992	525.133442390569	2
0	4006	526.996635371276	1
0	4025	528.996635371276	0
0	4081	534.326971837764	1
0	4088	535.332481800028	0
0	4156	541.299446975034	1
0	4160	542.575655809381	0
0	4272	555.005481415481	1
0	4280	556.813498593096	0
0	4386	567.092193590108	1
0	4391	567.792603475682	0
0	4411	569.354675314559	1
0	4412	569.354675314559	2
0	4413	569.792603475682	1
0	4427	570.171704706737	2
0	4435	571.792603475682	1
0	4452	573.792603475682	0
0	4459	574.039399204947	1
0	4476	575.792603475682	0
0	4563	587.299051615347	1
0	4564	587.473410351439	0
0	4573	588.159944606816	1
0	4581	589.473410351439	0
0	4750	607.858112152093	1
0	4752	608.006776100647	0
0	4764	608.895658356995	1
0	4769	610.006776100647	0
0	4807	614.372402846367	1
0	4809	614.464960880822	0
0	4818	616.111174994659	1
0	4830	616.457200542698	2
0	4831	616.464960880822	1
0	4841	618.197359650117	2
0	4848	618.464960880822	1
0	4859	620.464960880822	0
0	4883	624.27648368106	1
0	4884	624.731230778412	0
0	4894	625.729414589938	1
0	4898	626.731230778412	0
0	4913	628.562781358939	1
0	4914	628.731230778412	0
0	5032	644.273397703321	1
0	5043	646.273397703321	0
0	5050	647.320397628072	1
0	5060	648.273397703321	0
0	5072	649.463874943003	1
0	5079	650.273397703321	0
0	5137	658.611780850442	1
0	5145	660.008547561365	0
0	5154	660.726620609738	1
0	5159	662.008547561365	0
0	5174	663.109665693171	1
0	5180	664.008547561365	0
0	5189	664.182470285575	1
0	5197	666.008547561365	0
0	5263	674.880559110994	1
0	5274	676.880559110994	0
0	5623	725.983678671128	1
0	5630	726.786714950471	2
0	5631	726.786714950471	3
0	5632	727.983678671128	2
0	5638	728.71506701593	3
0	5640	729.983678671128	2
0	5647	730.43496635367	3
0	5651	731.983678671128	2
0	5661	733.661972238972	3
0	5662	733.983678671128	2
0	5668	735.983678671128	1
0	5681	737.983678671128	0
0	5723	743.160570342782	1
0	5731	744.21541283676	0
0	6048	781.611853133657	1
0	6060	783.314086972529	0
0	6368	823.012342529731	1
0	6370	823.020905945812	0
0	6398	825.952992735352	1
0	6407	827.55448606521	0
0	6699	864.796605945972	1
0	6704	865.676748113377	0
0	6756	869.855007994473	1
0	6767	870.84903445127	2
0	6775	871.006832144423	1
0	6792	873.006832144423	0
0	6857	880.970975412151	1
0	6866	882.970975412151	0
0	6883	884.693821945297	1
0	6885	884.970975412151	0
0	7063	911.829600918388	1
0	7070	912.849351673719	0
0	7167	925.559452239622	1
0	7172	926.095174237505	2
0	7173	926.095174237505	3
0	7174	926.602414926311	2
0	7188	928.602414926311	1
0	7197	930.602414926311	0
0	7285	941.676927193747	1
0	7290	942.304667372031	0
0	7358	952.124566788536	1
0	7359	952.185520424279	0
0	7487	968.377644961399	1
0	7488	968.392634822217	0
0	7501	969.704811449469	1
0	7502	970.392634822217	0
0	7533	975.125162403804	1
0	7545	975.591766515315	0
0	7673	993.156270371844	1
0	7678	994.329970252572	0
0	7735	1003.436124205436	1
0	7748	1004.50470667327	0
0	7762	1004.529147306465	1
0	7771	1005.615471141993	2
0	7783	1006.50470667327	1
0	7792	1006.851421148814	2
0	7793	1006.851421148814	3
0	7818	1008.50470667327	2
0	7833	1010.50470667327	1
0	7842	1010.946024584685	2
0	7855	1012.50470667327	1
0	7865	1012.833517314716	2
0	7877	1014.50470667327	1
0	7897	1016.50470667327	0
0	8002	1027.14394548831	1
0	8013	1029.14394548831	0
0	8187	1049.642723915064	1
0	8189	1049.655848115099	0
0	8262	1057.522456439119	1
0	8270	1058.59371372189	2
0	8278	1059.065676616877	3
0	8279	1059.522456439119	2
0	8296	1060.746525760862	3
0	8303	1061.522456439119	2
0	8312	1063.522456439119	1
0	8331	1065.522456439119	0
0	8377	1069.81482713063	1
0	8378	1070.057643420127	0
0	8443	1078.664257372136	1
0	8449	1079.338599550429	0
0	8462	1080.714374033077	1
0	8465	1081.338599550429	0
0	8635	1103.357430107394	1
0	8654	1104.418472612545	2
0	8655	1104.418472612545	3
0	8656	1104.779122861331	2
0	8668	1106.779122861331	1
0	8674	1107.222362006001	2
0	8685	1108.176370998666	3
0	8694	1108.779122861331	2
0	8703	1110.779122861331	1
0	8722	1112.779122861331	0
0	8767	1119.085660844264	1
0	8773	1119.402833577588	0
0	8850	1127.672694176118	1
0	8855	1128.010331224407	2
0	8862	1129.111887282562	1
0	8884	1131.111887282562	0
0	8900	1132.852524811561	1
0	8904	1133.111887282562	0
0	8910	1133.515423501411	1
0	8924	1135.111887282562	0
0	8991	1143.222182685017	1
0	8999	1144.082030325812	0
0	9052	1155.227588985342	1
0	9066	1156.611741818208	2
0	9068	1156.791171005622	1
0	9077	1157.198227909686	2
0	9082	1157.667516146505	3
0	9090	1158.791171005622	2
0	9114	1160.33706577156	3
0	9115	1160.791171005622	2
0	9133	1162.455347296665	3
0	9135	1162.791171005622	2
0	9144	1164.791171005622	1
0	9150	1165.089540836752	2
0	9157	1166.791171005622	1
0	9166	1168.791171005622	0
0	9200	1172.05234911064	1
0	9205	1173.70207666763	0
0	9274	1180.539524230625	1
0	9284	1182.539524230625	0
0	9441	1202.384992293074	1
0	9451	1204.000499510743	0
0	9527	1213.457850028364	1
0	9531	1214.434066957596	2
0	9532	1214.434066957596	3
0	9533	1214.709631030779	2
0	9549	1216.174045310778	3
0	9550	1216.709631030779	2
0	9559	1217.939901377636	3
0	9565	1218.016979359225	4
0	9569	1218.709631030779	3
0	9588	1220.709631030779	2
0	9613	1222.709631030779	1
0	9627	1224.709631030779	0
0	9672	1229.963859437881	1
0	9677	1230.136000449909	2
0	9679	1231.12648073361	1
0	9696	1233.12648073361	0
0	9801	1244.917505155515	1
0	9802	1244.917505155515	2
0	9806	1246.691513062731	1
0	9817	1248.691513062731	0
0	9823	1249.190931544015	1
0	9834	1250.691513062731	0
0	9846	1252.132035326412	1
0	9848	1252.691513062731	0
0	9915	1262.477518068718	1
0	9920	1262.803594112404	2
0	9929	1263.443991719518	1
0	9938	1263.725328203884	2
0	9954	1265.443991719518	1
0	9963	1267.443991719518	0
0	9980	1269.17793241252	1
0	9981	1269.17793241252	2
0	9982	1269.443991719518	1
0	9994	1271.443991719518	0
0	10001	1271.809467619124	1
0	10005	1272.29469684966	2
0	10012	1273.443991719518	1
0	10021	1275.443991719518	0
0	10030	1276.043254919778	1
0	10035	1277.443991719518	0
0	10044	1278.847413757237	1
0	10051	1279.443991719518	0
0	10085	1282.279991057232	1
0	10105	1284.279991057232	0
0	10118	1285.234914203969	1
0	10125	1286.279991057232	0
0	10270	1304.24057636501	1
0	10272	1304.423616918312	0
0	10282	1304.765427901179	1
0	10287	1304.975531375748	2
0	10302	1306.423616918312	1
0	10311	1307.084510334869	2
0	10312	1307.084510334869	3
0	10324	1308.423616918312	2
0	10346	1310.423616918312	1
0	10373	1312.423616918312	0
0	10417	1317.41798851056	1
0	10424	1318.256222271499	0
0	10473	1325.663306775742	1
0	10480	1327.663306775742	0
0	10492	1328.998214992145	1
0	10494	1329.663306775742	0
0	10527	1334.519301005281	1
0	10539	1335.094088605685	2
0	10548	1336.516018239033	1
0	10566	1337.832158149829	2
0	10567	1337.832158149829	3
0	10568	1338.516018239033	2
0	10578	1339.08153071203	3
0	10582	1340.239628954289	4
0	10584	1340.516018239033	3
0	10590	1342.516018239033	2
0	10606	1344.516018239033	1
0	10620	1346.516018239033	0
0	10637	1348.042553527822	1
0	10642	1348.516018239033	0
0	10774	1360.203033548498	1
0	10775	1360.203033548498	2
0	10776	1360.911620518708	1
0	10783	1360.935411699731	2
0	10793	1362.911620518708	1
0	10802	1363.214714677113	2
0	10803	1363.214714677113	3
0	10811	1364.484022940897	4
0	10812	1364.911620518708	3
0	10826	1366.911620518708	2
0	10835	1367.573000882332	3
0	10850	1368.911620518708	2
0	10856	1369.774222268559	3
0	10857	1369.774222268559	4
0	10867	1370.911620518708	3
0	10876	1372.911620518708	2
0	10885	1374.874688936355	3
0	10887	1374.911620518708	2
0	10898	1376.911620518708	1
0	10908	1377.773098712038	2
0	10909	1378.911620518708	1
0	10918	1380.911620518708	0
0	10930	1382.683889118304	1
0	10931	1382.911620518708	0
0	10978	1388.272501570893	1
0	10986	1389.773037392672	0
0	10999	1391.091166051289	1
0	11006	1391.447822256647	2
0	11007	1391.447822256647	3
0	11008	1391.773037392672	2
0	11019	1393.773037392672	1
0	11034	1395.558029641803	2
0	11035	1395.773037392672	1
0	11057	1397.773037392672	0
0	11117	1404.169204316716	1
0	11134	1406.169204316716	0
0	11150	1407.785091410599	1
0	11151	1408.169204316716	0
0	11192	1413.396519541931	1
0	11203	1414.572257861904	0
0	11212	1414.651847942085	1
0	11225	1416.572257861904	0
0	11421	1448.985503829758	1
0	11422	1448.985503829758	2
0	11426	1449.448898455387	3
0	11434	1450.473448091208	2
0	11446	1452.209462230807	3
0	11448	1452.473448091208	2
0	11455	1453.099576862016	3
0	11459	1454.473448091208	2
0	11470	1456.473448091208	1
0	11476	1456.615403578676	2
0	11482	1457.111441344466	3
0	11489	1458.473448091208	2
0	11496	1459.058283594462	3
0	11503	1460.473448091208	2
0	11519	1462.473448091208	1
0	11535	1464.473448091208	0
0	11550	1465.725087480224	1
0	11551	1465.725087480224	2
0	11552	1466.473448091208	1
0	11566	1468.473448091208	0
0	11592	1469.885769826596	1
0	11593	1470.473448091208	0
0	11628	1474.168306715923	1
0	11643	1475.996266097082	2
0	11645	1476.168306715923	1
0	11652	1477.021077419129	2
0	11674	1478.168306715923	1
0	11689	1479.583565315942	2
0	11691	1480.168306715923	1
0	11698	1480.372359507094	2
0	11713	1482.168306715923	1
0	11733	1484.168306715923	0
0	11907	1502.960609367208	1
0	11915	1503.668023713199	0
0	11928	1505.648999916367	1
0	11929	1505.668023713199	0
0	11974	1512.586054943988	1
0	11975	1512.586054943988	2
0	11979	1513.163845525827	3
0	11981	1513.375552275475	2
0	11988	1513.435203985826	3
0	11999	1515.185621514266	4
0	12000	1515.375552275475	3
0	12012	1517.375552275475	2
0	12020	1519.375552275475	1
0	12039	1521.375552275475	0
0	12089	1525.526717745734	1
0	12100	1526.124309384734	2
0	12101	1526.440625003604	1
0	12131	1528.440625003604	0
0	12147	1529.553959783506	1
0	12151	1530.440625003604	0
0	12264	1548.539906460955	1
0	12276	1550.539906460955	0
0	12334	1558.648803427993	1
0	12339	1560.176774017305	0
0	12364	1562.60201488098	1
0	12380	1564.514375933682	0
0	12423	1567.733130318203	1
0	12427	1567.752434036611	2
0	12432	1568.31875711372	3
0	12434	1568.738997001657	2
0	12449	1570.738997001657	1
0	12462	1572.307957223298	2
0	12463	1572.738997001657	1
0	12474	1574.738997001657	0
0	12571	1586.798529959831	1
0	12585	1587.669885070223	0
0	12609	1590.051467048412	1
0	12627	1591.682736306469	2
0	12628	1591.682736306469	3
0	12629	1592.051467048412	2
0	12645	1593.356573657786	3
0	12646	1594.051467048412	2
0	12667	1595.949215316158	3
0	12668	1596.051467048412	2
0	12690	1598.051467048412	1
0	12702	1599.22501543861	2
0	12712	1600.051467048412	1
0	12724	1602.051467048412	0
0	12832	1616.0404859084	1
0	12838	1616.76744088492	0
0	12846	1618.500849167574	1
0	12851	1618.76744088492	0
0	12863	1620.054449319488	1
0	12872	1620.76744088492	0
0	12915	1624.574348550218	1
0	12922	1625.247202408729	2
0	12927	1626.574348550218	1
0	12946	1628.574348550218	0
0	12966	1630.436394129362	1
0	12968	1630.574348550218	0
0	13151	1654.764558610215	1
0	13153	1655.617288787475	0
0	13162	1656.976966426207	1
0	13163	1656.976966426207	2
0	13164	1657.617288787475	1
0	13175	1659.617288787475	0
0	13328	1681.511614029356	1
0	13330	1681.748837028001	0
0	13750	1741.460446109629	1
0	13751	1741.460446109629	2
0	13756	1742.000552883204	3
0	13764	1743.042810698232	2
0	13778	1745.042810698232	1
0	13794	1747.042810698232	0
0	13886	1759.477798151424	1
0	13898	1760.305914789492	0
0	14249	1812.484890915725	1
0	14250	1812.813675422844	0
0	14261	1812.934732367633	1
0	14262	1812.934732367633	2
0	14266	1813.990882604544	3
0	14282	1814.813675422844	2
0	14299	1816.813675422844	1
0	14321	1818.813675422844	0
0	14358	1822.575623225873	1
0	14362	1823.688632874082	0
0	14436	1831.32572063819	1
0	14443	1833.32572063819	0
0	14457	1834.279546307689	1
0	14464	1835.32572063819	0
0	14486	1837.568180883348	1
0	14490	1839.568180883348	0
0	14651	1860.600389484627	1
0	14657	1861.373144962625	0
0	14663	1861.426204883532	1
0	14676	1863.373144962625	0
0	14801	1883.661488000761	1
0	14806	1885.076307217351	0
0	14817	1885.851710009766	1
0	14818	1885.851710009766	2
0	14822	1887.076307217351	1
0	14841	1889.076307217351	0
0	14861	1891.019456010897	1
0	14863	1891.076307217351	0
0	14931	1898.282859726167	1
0	14951	1900.282859726167	0
0	14966	1901.771283098004	1
0	14968	1902.282859726167	0
0	14975	1902.877813814238	1
0	14982	1904.282859726167	0
0	15046	1914.31441781416	1
0	15056	1916.31441781416	0
0	15084	1918.075733357314	1
0	15089	1918.200898001193	2
0	15090	1918.31441781416	1
0	15111	1919.694147342721	2
0	15115	1920.31441781416	1
0	15128	1921.401329513625	2
0	15132	1922.31441781416	1
0	15149	1924.31441781416	0
0	15186	1931.818752571331	1
0	15191	1931.924044424478	2
0	15198	1933.045845466928	1
0	15213	1934.254615581561	2
0	15227	1934.963475820095	3
0	15228	1935.045845466928	2
0	15240	1937.045845466928	1
0	15259	1939.045845466928	0
0	15374	1953.62162279397	1
0	15387	1955.13400178459	2
0	15388	1955.62162279397	1
0	15400	1957.039298822292	2
0	15405	1957.62162279397	1
0	15415	1958.465189681379	2
0	15419	1959.62162279397	1
0	15438	1961.62162279397	0
0	15602	1985.058392587053	1
0	15603	1985.598243570756	0
0	15612	1986.507095599329	1
0	15613	1986.507095599329	2
0	15620	1987.598243570756	1
0	15631	1989.598243570756	0
0	15710	2003.370991313246	1
0	15722	2005.114187482773	2
0	15724	2005.370991313246	1
0	15736	2007.370991313246	0
0	15747	2009.01140834453	1
0	15748	2009.01140834453	2
0	15749	2009.370991313246	1
0	15758	2011.370991313246	0
0	15764	2012.268602500367	1
0	15766	2013.370991313246	0
0	15802	2019.059169370962	1
0	15803	2019.059169370962	2
0	15807	2019.756566636082	3
0	15815	2020.533266240614	2
0	15837	2022.533266240614	1
0	15848	2022.986315216468	2
0	15864	2024.533266240614	1
0	15881	2026.533266240614	0
0	15932	2031.803825119725	1
0	15934	2032.907372809393	0
0	16071	2052.466316361461	1
0	16073	2052.876418564559	0
0	16132	2061.562148879404	1
0	16133	2061.562148879404	2
0	16140	2062.734810324665	3
0	16143	2063.149011071627	2
0	16152	2063.688383601434	3
0	16156	2065.149011071627	2
0	16165	2065.91242065367	3
0	16172	2067.149011071627	2
0	16194	2069.149011071627	1
0	16203	2069.415369379494	2
0	16215	2070.323410193493	3
0	16216	2071.149011071627	2
0	16231	2072.459280838483	3
0	16233	2073.149011071627	2
0	16245	2073.959528246552	3
0	16249	2075.149011071627	2
0	16266	2077.149011071627	1
0	16272	2077.210996863192	2
0	16277	2077.277102188749	3
0	16278	2077.277102188749	4
0	16285	2079.149011071627	3
0	16300	2080.579729333702	4
0	16301	2081.149011071627	3
0	16315	2083.149011071627	2
0	16324	2085.149011071627	1
0	16330	2087.149011071627	0
0	16337	2088.174929240396	1
0	16343	2089.149011071627	0
0	16395	2099.051202155999	1
0	16396	2101.051202155999	0
0	16408	2102.704170217264	1
0	16409	2103.051202155999	0
0	16421	2104.619374441215	1
0	16422	2104.619374441215	2
0	16426	2105.051202155999	1
0	16438	2106.087664931084	2
0	16444	2107.051202155999	1
0	16461	2109.051202155999	0
0	16544	2118.94938815734	1
0	16549	2119.26423525481	2
0	16551	2120.387668040996	1
0	16563	2120.749988664254	2
0	16581	2122.387668040996	1
0	16587	2122.423596980106	2
0	16598	2123.929504550822	3
0	16600	2124.387668040996	2
0	16609	2126.387668040996	1
0	16628	2128.387668040996	0
0	16644	2129.116584768898	1
0	16649	2129.493808070296	2
0	16650	2130.387668040996	1
0	16667	2132.387668040996	0
0	16729	2138.36076955643	1
0	16741	2140.36076955643	0
0	16855	2154.19833449718	1
0	16856	2154.19833449718	2
0	16857	2154.445295418369	1
0	16866	2156.1284710646	2
0	16868	2156.445295418369	1
0	16887	2158.445295418369	0
0	16939	2166.44557779498	1
0	16940	2168.053335236985	0
0	16950	2168.209374339872	1
0	16961	2170.053335236985	0
0	16973	2170.362638751192	1
0	16978	2172.053335236985	0
0	16995	2172.8731065586	1
0	17005	2173.581585398278	2
0	17012	2174.053335236985	1
0	17042	2176.053335236985	0
0	17052	2176.222401657161	1
0	17062	2178.053335236985	0
0	17257	2202.868402154716	1
0	17259	2203.710067157804	0
0	17274	2204.461320969402	1
0	17282	2205.445320334818	2
0	17283	2205.710067157804	1
0	17295	2207.710067157804	0
0	17389	2228.084413464094	1
0	17392	2228.847871280794	0
0	17400	2229.521471592528	1
0	17410	2230.002271814306	2
0	17418	2230.342687049913	3
0	17420	2230.847871280794	2
0	17426	2231.362224388548	3
0	17442	2232.847871280794	2
0	17461	2234.847871280794	1
0	17474	2236.47190210699	2
0	17475	2236.847871280794	1
0	17484	2238.847871280794	0
0	17490	2239.271412820441	1
0	17498	2240.847871280794	0
0	17510	2242.221678371898	1
0	17512	2242.847871280794	0
0	17575	2252.216681425338	1
0	17583	2253.297633079326	0
0	17675	2271.402222538579	1
0	17676	2271.402222538579	2
0	17682	2272.748933755971	1
0	17699	2274.748933755971	0
0	17709	2276.616390424516	1
0	17710	2276.748933755971	0
0	17777	2284.001562334955	1
0	17787	2285.642725284626	0
0	17820	2289.863393124464	1
0	17823	2289.910278516945	0
0	17835	2290.355000492622	1
0	17844	2291.910278516945	0
0	17850	2292.104379372286	1
0	17866	2293.910278516945	0
0	17922	2300.560616222415	1
0	17929	2301.187732393826	0
0	18120	2330.111316970722	1
0	18123	2330.59528958881	0
0	18131	2330.683183520404	1
0	18132	2330.683183520404	2
0	18145	2332.59528958881	1
0	18161	2334.59528958881	0
0	18214	2341.373715280512	1
0	18219	2343.183493657865	2
0	18221	2343.19234395372	1
0	18233	2343.482161291857	2
0	18235	2345.19234395372	1
0	18249	2347.19234395372	0
0	18266	2347.992176468086	1
0	18267	2347.992176468086	2
0	18271	2348.952169776735	3
0	18273	2349.19234395372	2
0	18287	2351.19234395372	1
0	18293	2351.747527171942	2
0	18294	2351.747527171942	3
0	18309	2353.19234395372	2
0	18318	2355.19234395372	1
0	18336	2357.19234395372	0
0	18410	2366.206831869935	1
0	18419	2367.318712629025	0
0	18534	2383.295307425392	1
0	18535	2383.888428116254	0
0	18548	2385.524950679825	1
0	18549	2385.888428116254	0
0	18616	2397.267225313863	1
0	18625	2398.845361819295	0
0	18634	2399.018115299477	1
0	18635	2399.018115299477	2
0	18645	2399.62846202029	3
0	18646	2399.62846202029	4
0	18652	2400.845361819295	3
0	18669	2401.859610757669	4
0	18677	2402.845361819295	3
0	18684	2402.878370806247	4
0	18694	2404.845361819295	3
0	18710	2406.845361819295	2
0	18717	2407.744243276067	3
0	18727	2408.845361819295	2
0	18741	2410.845361819295	1
0	18750	2412.845361819295	0
0	18965	2444.980703167412	1
0	18967	2445.205775153016	0
0	19234	2476.843603120603	1
0	19235	2476.843603120603	2
0	19242	2477.163476539768	1
0	19258	2479.163476539768	0
0	19267	2480.779357418879	1
0	19268	2480.779357418879	2
0	19272	2481.163476539768	1
0	19278	2483.163476539768	0
0	19290	2484.259904858083	1
0	19291	2485.163476539768	0
0	19304	2486.390367632622	1
0	19315	2487.163476539768	0
0	19412	2497.739856017084	1
0	19426	2498.991788464071	2
0	19431	2499.03156171175	3
0	19436	2499.677781537191	2
0	19447	2500.965989524364	3
0	19448	2500.965989524364	4
0	19456	2501.677781537191	3
0	19467	2503.677781537191	2
0	19488	2505.677781537191	1
0	19500	2507.677781537191	0
0	19509	2509.28301473333	1
0	19514	2509.677781537191	0
0	19588	2519.52662397269	1
0	19594	2520.778238759005	0
0	19635	2524.824653117875	1
0	19641	2526.60625805305	0
0	19652	2528.27521955005	1
0	19654	2528.60625805305	0
0	19735	2537.885283871306	1
0	19742	2538.520673771317	0
0	19828	2547.936684408494	1
0	19843	2549.936684408494	0
0	19884	2555.084349652818	1
0	19894	2557.084349652818	0
0	19900	2557.994963307026	1
0	19906	2558.084204658562	2
0	19907	2559.084349652818	1
0	19921	2561.084349652818	0
0	20059	2579.921268770108	1
0	20072	2581.42473492918	2
0	20074	2581.921268770108	1
0	20086	2583.25174059323	2
0	20095	2583.469053762336	3
0	20096	2583.921268770108	2
0	20108	2585.921268770108	1
0	20119	2587.921268770108	0
0	20161	2594.389905299564	1
0	20164	2595.678638912005	0
0	20225	2604.53256237254	1
0	20232	2606.53256237254	0
0	20277	2612.319237305903	1
0	20297	2614.319237305903	0
0	20319	2618.00363376788	1
0	20323	2620.00363376788	0
0	20360	2627.702248049593	1
0	20364	2627.812968419381	2
0	20369	2628.390240941881	3
0	20371	2628.623465961256	2
0	20380	2629.311875611571	3
0	20389	2630.518740646451	4
0	20390	2630.623465961256	3
0	20404	2631.456327062375	4
0	20412	2631.784524057899	5
0	20417	2632.364515713696	6
0	20418	2632.364515713696	7
0	20419	2632.623465961256	6
0	20438	2634.040490642514	7
0	20439	2634.623465961256	6
0	20448	2636.623465961256	5
0	20455	2636.760864495386	6
0	20464	2638.623465961256	5
0	20479	2639.887853081368	6
0	20486	2640.623465961256	5
0	20493	2641.024621157121	6
0	20503	2642.486089055486	7
0	20505	2642.623465961256	6
0	20514	2644.623465961256	5
0	20535	2646.623465961256	4
0	20555	2648.623465961256	3
0	20572	2650.623465961256	2
0	20583	2652.623465961256	1
0	20597	2654.623465961256	0
0	20820	2690.113826127267	1
0	20821	2690.113826127267	2
0	20822	2690.419391177016	1
0	20831	2692.419391177016	0
0	20882	2698.802453964515	1
0	20887	2699.396304330282	2
0	20894	2699.694687266684	1
0	20918	2701.694687266684	0
0	20928	2703.167694194553	1
0	20935	2703.694687266684	0
0	21110	2733.834557861557	1
0	21120	2734.809556486999	0
0	21350	2764.334631213599	1
0	21367	2766.334631213599	0
0	21448	2776.328098848123	1
0	21450	2776.586969933217	0
0	21526	2787.093502588665	1
0	21527	2787.291355301789	0
0	21582	2793.592797282778	1
0	21592	2794.507936248481	0
0	21607	2795.820733584524	1
0	21608	2795.820733584524	2
0	21612	2796.507936248481	1
0	21629	2798.104481013781	2
0	21631	2798.507936248481	1
0	21658	2800.507936248481	0
0	21723	2810.573973394133	1
0	21724	2810.573973394133	2
0	21726	2811.581185315087	1
0	21736	2813.581185315087	0
0	21915	2833.064209749674	1
0	21924	2834.027861569902	0
0	21933	2834.356893658081	1
0	21947	2836.027861569902	0
0	21954	2836.106475450689	1
0	21977	2838.027861569902	0
0	21986	2839.223991866357	1
0	21997	2840.027861569902	0
0	22361	2900.435279699577	1
0	22364	2901.851626917524	0
0	22380	2902.890649280708	1
0	22386	2903.03463146478	2
0	22391	2903.748506032971	3
0	22397	2903.851626917524	2
0	22417	2905.851626917524	1
0	22434	2907.851626917524	0
0	22494	2916.921099219697	1
0	22495	2918.007379667651	0
0	22502	2918.157193317166	1
0	22514	2920.007379667651	0
0	22693	2945.864911067319	1
0	22699	2946.272974876637	0
0	22713	2948.116140043979	1
0	22720	2948.272974876637	0
0	22840	2966.562688456297	1
0	22853	2967.544808213574	2
0	22855	2968.000842257243	1
0	22866	2968.864502517369	2
0	22874	2970.000842257243	1
0	22888	2970.803078795713	2
0	22893	2972.000842257243	1
0	22910	2974.000842257243	0
0	23017	2994.600592638269	1
0	23023	2996.600592638269	0
0	23041	2998.153222081968	1
0	23042	2998.600592638269	0
0	23055	3000.273312260783	1
0	23061	3000.600592638269	0
0	23075	3001.316840978925	1
0	23080	3002.600592638269	0
0	23097	3004.004720782065	1
0	23107	3004.600592638269	0
0	23336	3031.321485566067	1
0	23342	3031.7414724401	2
0	23346	3032.292774741075	1
0	23359	3033.962282050749	2
0	23363	3034.292774741075	1
0	23372	3034.932389508432	2
0	23373	3034.932389508432	3
0	23381	3036.142751264707	4
0	23382	3036.292774741075	3
0	23389	3036.411659600381	4
0	23399	3038.292774741075	3
0	23413	3040.292774741075	2
0	23423	3041.541451092038	3
0	23437	3042.292774741075	2
0	23454	3044.292774741075	1
0	23468	3046.292774741075	0
0	23475	3047.287905744077	1
0	23482	3048.292774741075	0
0	23522	3054.15364220117	1
0	23534	3055.425858246376	0
0	23700	3071.411877003021	1
0	23705	3072.379247367431	2
0	23710	3072.776546892552	1
0	23722	3074.776546892552	0
0	23738	3076.188889876832	1
0	23746	3076.776546892552	0
0	23757	3077.283926080502	1
0	23772	3078.188240235897	2
0	23773	3078.188240235897	3
0	23781	3078.776546892552	2
0	23789	3078.96897369862	3
0	23801	3080.776546892552	2