version 3
run k_MM1_rand-22-20221127-16:03:21-5740
attr configname k_MM1_rand
attr datetime 20221127-16:03:21
attr datetimef 20221127-160321
attr experiment k_MM1_rand
attr inifile omnetpp.ini
attr iterationvars "$time=2.0, $num=5, $0=47853, $1=24674, $2=96433"
attr iterationvarsd time=2.0/num=5/47853/24674/96433
attr iterationvarsf time=2.0,num=5,47853,24674,96433-
attr measurement "$time=2.0, $num=5, $0=47853, $1=24674, $2=96433"
attr network randkMM1
attr processid 5740
attr repetition 2
attr replication #2
attr resultdir results
attr runnumber 22
attr seedset 22
itervar num 5
itervar time 2.0
config description "MM1 module k-times random"
config network randkMM1
config **.source.interArrivalTime "truncnormal(0.5s, 1.5s)"
config **.serviceTime 2.0s
config **.c 5
config **.capacity 10000
config record-eventlog false
config **.scalar-recording true
config **.vector-recording true
config repeat 4
config seed-1-mt 47853
config seed-2-mt 24674
config seed-3-mt 96433
config output-vector-file k_MM1_rand-5-2.0-results/2.vec
config output-scalar-file k_MM1_rand-5-2.0-results/2.sca

vector 0 randkMM1.mm1[2] queueLength:vector ETV
attr interpolationmode none
attr recordingmode vector
attr title "queue length"
vector 1 randkMM1.mm1[4] queueLength:vector ETV
attr interpolationmode none
attr recordingmode vector
attr title "queue length"
vector 2 randkMM1.mm1[2] util:vector ETV
attr interpolationmode none
attr recordingmode vector
attr title resources
vector 3 randkMM1.mm1[1] util:vector ETV
attr interpolationmode none
attr recordingmode vector
attr title resources
vector 4 randkMM1.mm1[4] util:vector ETV
attr interpolationmode none
attr recordingmode vector
attr title resources
vector 5 randkMM1.mm1[3] queueLength:vector ETV
attr interpolationmode none
attr recordingmode vector
attr title "queue length"
vector 6 randkMM1.mm1[3] util:vector ETV
attr interpolationmode none
attr recordingmode vector
attr title resources
vector 7 randkMM1.mm1[1] queueLength:vector ETV
attr interpolationmode none
attr recordingmode vector
attr title "queue length"
vector 8 randkMM1.mm1[0] util:vector ETV
attr interpolationmode none
attr recordingmode vector
attr title resources
vector 9 randkMM1.mm1[0] queueLength:vector ETV
attr interpolationmode none
attr recordingmode vector
attr title "queue length"
0	5	10	1
0	9	10.195106859603	2
0	10	10.195106859603	3
0	21	12	2
0	38	14	1
0	60	16	0
0	142	27.15938262075	1
0	149	29.15938262075	0
0	367	64.672381845451	1
0	383	65.743453774948	0
0	488	76.089188984174	1
0	490	76.833596646344	0
0	499	77.220912419882	1
0	512	78.833596646344	0
0	536	80.43514964437	1
0	537	80.833596646344	0
0	598	88.036775901827	1
0	599	88.851574929104	0
0	725	109.183672758138	1
0	731	110.026978357208	0
0	741	110.32087657708	1
0	748	112.026978357208	0
0	765	114.022381816923	1
0	767	114.026978357208	0
0	776	115.346775040415	1
0	777	115.346775040415	2
0	781	116.026978357208	1
0	787	118.026978357208	0
0	848	124.962554686632	1
0	855	126.962554686632	0
0	1032	146.0309980595	1
0	1037	147.081072462704	0
0	1147	164.587103605494	1
0	1148	164.587103605494	2
0	1149	164.589150168431	1
0	1161	166.589150168431	0
0	1168	166.827876831035	1
0	1174	168.589150168431	0
0	1302	189.240179741238	1
0	1317	191.240179741238	0
0	1433	210.088777731973	1
0	1438	211.434195208792	0
0	1453	212.124499818818	1
0	1455	213.434195208792	0
0	1461	213.465402597535	1
0	1484	215.265895592206	2
0	1486	215.434195208792	1
0	1510	216.996823618603	2
0	1511	217.434195208792	1
0	1523	219.434195208792	0
0	1540	221.104585390617	1
0	1542	221.434195208792	0
0	1554	222.7745360794	1
0	1559	223.434195208792	0
0	1568	223.536460158139	1
0	1578	225.434195208792	0
0	1667	235.816206287823	1
0	1671	236.024825238195	2
0	1672	236.024825238195	3
0	1673	236.254343647549	2
0	1685	238.254343647549	1
0	1699	240.254343647549	0
0	1741	246.082967404876	1
0	1749	246.58531597019	2
0	1754	247.488165204342	1
0	1764	247.998759685175	2
0	1768	248.322126959205	3
0	1773	249.488165204342	2
0	1785	251.488165204342	1
0	1798	253.488165204342	0
0	2011	277.877133288846	1
0	2028	279.877133288846	0
0	2113	291.987650520759	1
0	2118	292.183510097386	2
0	2128	293.987650520759	1
0	2134	294.210335449856	2
0	2142	295.673531853555	3
0	2144	295.987650520759	2
0	2153	297.987650520759	1
0	2168	299.729837915388	2
0	2169	299.987650520759	1
0	2181	300.804186318594	2
0	2196	301.987650520759	1
0	2209	303.052124214504	2
0	2218	303.987650520759	1
0	2224	304.349084051154	2
0	2243	305.987650520759	1
0	2249	306.619379299523	2
0	2250	306.619379299523	3
0	2260	307.987650520759	2
0	2267	308.431197715478	3
0	2281	309.987650520759	2
0	2306	311.987650520759	1
0	2323	313.987650520759	0
0	2335	314.664941761308	1
0	2345	315.987650520759	0
0	2412	325.222776178624	1
0	2414	325.898067808119	0
0	2596	345.590198839162	1
0	2601	346.977246611462	0
0	2636	350.677542576953	1
0	2637	351.684048709288	0
0	2653	352.813631137661	1
0	2654	353.684048709288	0
0	2864	385.904557372015	1
0	2881	387.904557372015	0
0	2976	400.866304675047	1
0	2977	401.107033492621	0
0	3276	444.926021398808	1
0	3280	446.456993241029	0
0	3475	474.012624661439	1
0	3479	474.072572250671	2
0	3480	474.072572250671	3
0	3481	475.057032956535	2
0	3492	477.057032956535	1
0	3509	479.057032956535	0
0	3515	480.476887404516	1
0	3523	481.057032956535	0
0	3552	485.321032532201	1
0	3553	486.379297264858	0
0	3596	494.963424959202	1
0	3608	496.963424959202	0
0	3717	512.298702296564	1
0	3723	513.199315339764	0
0	3735	514.630187731361	1
0	3750	515.199315339764	0
0	3756	515.264574908637	1
0	3761	515.287977680824	2
0	3762	515.287977680824	3
0	3777	517.199315339764	2
0	3797	519.199315339764	1
0	3814	521.199315339764	0
0	3975	545.868963940221	1
0	3980	546.255583382245	2
0	3993	547.868963940221	1
0	4008	549.522176627774	2
0	4009	549.868963940221	1
0	4035	551.58227851853	2
0	4036	551.868963940221	1
0	4048	553.213730701755	2
0	4059	553.858048275305	3
0	4060	553.868963940221	2
0	4069	555.868963940221	1
0	4078	556.86555092945	2
0	4083	557.868963940221	1
0	4089	558.186456885047	2
0	4110	559.868963940221	1
0	4119	561.162823232786	2
0	4127	561.868963940221	1
0	4151	563.868963940221	0
0	4166	564.868936622376	1
0	4173	565.868963940221	0
0	4317	583.391497487916	1
0	4332	584.745595046945	0
0	4350	586.381248505085	1
0	4357	586.745595046945	0
0	4390	589.467819274948	1
0	4400	591.467819274948	0
0	4489	601.019814411383	1
0	4496	603.019814411383	0
0	4508	603.714748378952	1
0	4515	605.019814411383	0
0	4547	607.896097152123	1
0	4559	609.432618025481	2
0	4561	609.509850449462	1
0	4586	611.509850449462	0
0	4708	626.009890611141	1
0	4718	626.938726319555	0
0	4835	639.295463168029	1
0	4843	639.351585016207	2
0	4846	640.644184833745	1
0	4855	641.050192144616	2
0	4857	642.644184833745	1
0	4866	643.580086226522	2
0	4868	644.644184833745	1
0	4876	645.026435068804	2
0	4882	646.644184833745	1
0	4903	648.37543675226	2
0	4905	648.644184833745	1
0	4922	650.644184833745	0
0	5004	665.492204174842	1
0	5005	666.383513309327	0
0	5036	670.42128332678	1
0	5037	670.42128332678	2
0	5039	670.672661534344	1
0	5048	672.292297811027	2
0	5049	672.672661534344	1
0	5060	674.672661534344	0
0	5130	687.461724515121	1
0	5131	687.924533214623	0
0	5163	691.6583440966	1
0	5201	693.6583440966	0
0	5218	695.266275702452	1
0	5226	695.6583440966	0
0	5301	701.884409303497	1
0	5308	702.875122515855	0
0	5326	704.59024631225	1
0	5328	704.875122515855	0
0	5374	711.854070164484	1
0	5377	713.257153125241	0
0	5388	713.624049421809	1
0	5398	715.257153125241	0
0	5412	715.789278717723	1
0	5413	715.789278717723	2
0	5417	717.257153125241	1
0	5431	719.257153125241	0
0	5451	721.033576843232	1
0	5453	721.257153125241	0
0	5469	721.884089107498	1
0	5485	723.257153125241	0
0	5491	724.583057443538	1
0	5503	724.997683632949	2
0	5510	725.257153125241	1
0	5519	727.257153125241	0
0	5698	752.499618652814	1
0	5703	752.888261199864	0
0	5773	760.966046098355	1
0	5779	761.194236829963	0
0	5883	778.255560864129	1
0	5896	780.255560864129	0
0	6000	796.033642103669	1
0	6002	796.118324994595	0
0	6039	801.041944449046	1
0	6044	802.573893948578	0
0	6177	819.884484796453	1
0	6187	821.266265516097	0
0	6196	822.334605796856	1
0	6204	823.266265516097	0
0	6218	824.075873318209	1
0	6223	824.237819695496	2
0	6236	825.103673412478	3
0	6238	825.266265516097	2
0	6253	827.266265516097	1
0	6270	829.266265516097	0
0	6310	833.892157597252	1
0	6322	835.892157597252	0
0	6332	837.567137422821	1
0	6336	837.892157597252	0
0	6419	851.653436121893	1
0	6420	851.653436121893	2
0	6421	852.210338013015	1
0	6435	854.210338013015	0
0	6532	867.719674501556	1
0	6534	867.805820064823	0
0	6543	867.95393521631	1
0	6549	868.294740899452	2
0	6553	868.660429177751	3
0	6554	868.660429177751	4
0	6555	869.805820064823	3
0	6569	871.805820064823	2
0	6590	873.742157985192	3
0	6591	873.805820064823	2
0	6605	875.805820064823	1
0	6612	876.687095906401	2
0	6619	877.805820064823	1
0	6633	879.805820064823	0
0	6639	880.376774915711	1
0	6655	881.569711594734	2
0	6662	881.805820064823	1
0	6679	883.805820064823	0
0	6688	884.551100381204	1
0	6696	885.805820064823	0
0	6802	901.696474544917	1
0	6806	902.103059078867	2
0	6814	902.496388454724	3
0	6821	903.44504768253	2
0	6838	905.44504768253	1
0	6855	907.44504768253	0
0	6946	917.418627664543	1
0	6948	917.696574928115	0
0	7072	934.765901810225	1
0	7081	935.777387234503	2
0	7083	936.169329961377	1
0	7100	938.169329961377	0
0	7129	941.57676881157	1
0	7134	942.01378992144	2
0	7139	942.302492102078	1
0	7151	942.402179936575	2
0	7159	943.999622333029	3
0	7161	944.302492102078	2
0	7174	945.539503161874	3
0	7175	945.539503161874	4
0	7180	946.302492102078	3
0	7196	948.302492102078	2
0	7215	950.302492102078	1
0	7221	950.556476659497	2
0	7232	952.302492102078	1
0	7246	954.302492102078	0
0	7257	955.439575009616	1
0	7265	956.302492102078	0
0	7271	956.391768231168	1
0	7280	956.710199090979	2
0	7285	956.91500807733	3
0	7289	958.302492102078	2
0	7299	959.243437006084	3
0	7308	960.302492102078	2
0	7317	960.413566820065	3
0	7325	961.783248855996	4
0	7327	962.302492102078	3
0	7339	964.302492102078	2
0	7353	966.302492102078	1
0	7375	968.302492102078	0
0	7393	970.196213402655	1
0	7395	970.302492102078	0
0	7593	997.963100965363	1
0	7594	997.963100965363	2
0	7595	998.7874689044	1
0	7609	1000.7874689044	0
0	7633	1004.958078392189	1
0	7634	1005.760782563744	0
0	7648	1006.802227409177	1
0	7658	1007.760782563744	0
0	7668	1008.781671820169	1
0	7680	1009.760782563744	0
0	7686	1009.863159623994	1
0	7687	1009.863159623994	2
0	7702	1011.760782563744	1
0	7723	1013.647043792389	2
0	7724	1013.760782563744	1
0	7738	1015.760782563744	0
0	7750	1016.184930373712	1
0	7757	1016.825794642563	2
0	7762	1017.760782563744	1
0	7775	1018.349577818956	2
0	7782	1019.760782563744	1
0	7799	1021.760782563744	0
0	7808	1023.081378398073	1
0	7813	1023.760782563744	0
0	7847	1027.613987277654	1
0	7849	1028.969701340782	0
0	7863	1030.799591112327	1
0	7864	1030.799591112327	2
0	7865	1030.969701340782	1
0	7876	1032.969701340782	0
0	7929	1037.55331419981	1
0	7944	1039.55331419981	0
0	8027	1051.64805774233	1
0	8038	1053.300318295431	0
0	8231	1084.44608219484	1
0	8236	1085.050517199234	0
0	8247	1086.355917338159	1
0	8248	1086.355917338159	2
0	8255	1087.050517199234	1
0	8279	1089.050517199234	0
0	8318	1091.836658155535	1
0	8333	1093.224545531076	0
0	8340	1093.371209428771	1
0	8353	1095.224545531076	0
0	8362	1095.701766371867	1
0	8370	1097.224545531076	0
0	8410	1102.988945409178	1
0	8411	1102.988945409178	2
0	8416	1103.596562651143	3
0	8420	1104.34988145841	2
0	8434	1106.34988145841	1
0	8440	1107.738999841026	2
0	8448	1108.34988145841	1
0	8459	1110.34988145841	0
0	8472	1112.096421395875	1
0	8473	1112.34988145841	0
0	8479	1113.027771868281	1
0	8489	1114.34988145841	0
0	8510	1116.953868330855	1
0	8517	1118.953868330855	0
0	8523	1119.137335343672	1
0	8528	1120.953868330855	0
0	8537	1121.178235873401	1
0	8544	1122.953868330855	0
0	8650	1136.519205520448	1
0	8660	1136.655655500207	2
0	8667	1138.519205520448	1
0	8679	1140.519205520448	0
0	8691	1142.164149509624	1
0	8693	1142.519205520448	0
0	8699	1143.023414055565	1
0	8709	1144.519205520448	0
0	8729	1147.092089974881	1
0	8731	1148.674081532598	0
0	8903	1168.127650548553	1
0	8905	1168.779065608805	0
0	9004	1179.084570918868	1
0	9011	1180.319897701818	0
0	9027	1181.555174251649	1
0	9036	1182.319897701818	0
0	9067	1186.304365744932	1
0	9073	1186.544112762558	2
0	9074	1187.096445811176	1
0	9091	1189.096445811176	0
0	9354	1219.947119779983	1
0	9355	1220.993438824598	0
0	9628	1260.956589790561	1
0	9636	1262.916811939355	0
0	9739	1281.233091715633	1
0	9740	1281.768905302279	0
0	9760	1283.01928241286	1
0	9762	1283.768905302279	0
0	9808	1288.531196477485	1
0	9815	1290.089022612088	2
0	9820	1290.531196477485	1
0	9836	1292.531196477485	0
0	9973	1307.723097523197	1
0	9974	1307.863095927427	0
0	9983	1308.634741927237	1
0	9984	1308.634741927237	2
0	9988	1309.863095927427	1
0	9999	1311.863095927427	0
0	10011	1313.370290622369	1
0	10018	1313.863095927427	0
0	10058	1318.463531877232	1
0	10069	1319.340879109627	0
0	10142	1329.970902797961	1
0	10149	1331.056630574483	0
0	10159	1331.702683244196	1
0	10171	1333.056630574483	0
0	10227	1339.154590250045	1
0	10229	1339.289775841296	0
0	10243	1340.009969802046	1
0	10254	1341.289775841296	0
0	10260	1341.620135291084	1
0	10284	1343.289775841296	0
0	10370	1353.771779101949	1
0	10371	1353.771779101949	2
0	10375	1354.812123753016	1
0	10385	1354.890497882414	2
0	10389	1356.812123753016	1
0	10407	1357.395452794233	2
0	10408	1358.812123753016	1
0	10422	1360.812123753016	0
0	10529	1372.204601602327	1
0	10530	1372.204601602327	2
0	10542	1373.326326140558	1
0	10554	1375.326326140558	0
0	10560	1375.598830764535	1
0	10573	1377.326326140558	0
0	10583	1378.016094379215	1
0	10590	1379.326326140558	0
0	10596	1379.596322001567	1
0	10597	1379.596322001567	2
0	10606	1381.326326140558	1
0	10638	1383.326326140558	0
0	10650	1384.071507435393	1
0	10663	1385.326326140558	0
0	10675	1386.456488171254	1
0	10676	1386.456488171254	2
0	10683	1387.326326140558	1
0	10696	1388.825865912305	2
0	10697	1389.326326140558	1
0	10711	1391.326326140558	0
0	10811	1400.828475086157	1
0	10823	1402.550023466357	0
0	10954	1417.722922239405	1
0	10955	1417.863169360751	0
0	11044	1427.588055951634	1
0	11062	1429.588055951634	0
0	11142	1437.267321242288	1
0	11151	1438.671398983037	0
0	11290	1455.461069561599	1
0	11297	1456.726332835441	2
0	11299	1457.280648963689	1
0	11325	1459.065057808571	2
0	11326	1459.280648963689	1
0	11343	1461.280648963689	0
0	11350	1461.494676430114	1
0	11360	1463.280648963689	0
0	11367	1463.518631343498	1
0	11382	1465.157797479014	2
0	11384	1465.280648963689	1
0	11401	1467.280648963689	0
0	11414	1469.225152162236	1
0	11415	1469.280648963689	0
0	11422	1469.809601062736	1
0	11429	1471.280648963689	0
0	11537	1485.078450609101	1
0	11544	1485.458573527378	0
0	11551	1485.986360821708	1
0	11558	1487.458573527378	0
0	11671	1503.364883249899	1
0	11682	1504.783822060798	0
0	11734	1511.58013543391	1
0	11745	1513.1700593319	0
0	11884	1534.434529531012	1
0	11896	1535.260139010956	0
0	12010	1553.761714245922	1
0	12012	1554.488395530002	0
0	12052	1559.275064921399	1
0	12057	1560.60807631953	0
0	12070	1561.616917048554	1
0	12080	1562.60807631953	0
0	12168	1574.748033160446	1
0	12177	1576.748033160446	0
0	12227	1583.714471046069	1
0	12228	1583.714471046069	2
0	12229	1583.854987555837	1
0	12252	1585.704971079911	2
0	12253	1585.854987555837	1
0	12272	1587.854987555837	0
0	12424	1605.920945156578	1
0	12429	1606.730608973567	2
0	12430	1607.920945156578	1
0	12446	1609.920945156578	0
0	12466	1611.130123516452	1
0	12468	1611.920945156578	0
0	12535	1622.927491172247	1
0	12537	1623.141233287541	0
0	12579	1629.516343827162	1
0	12581	1629.798656676442	0
0	12593	1631.274505353145	1
0	12594	1631.274505353145	2
0	12595	1631.798656676442	1
0	12606	1633.798656676442	0
0	12617	1635.055057763308	1
0	12623	1635.402463656978	2
0	12630	1635.798656676442	1
0	12642	1637.798656676442	0
0	12752	1651.768572921173	1
0	12753	1651.768572921173	2
0	12761	1652.402771613659	3
0	12765	1653.205313085827	2
0	12779	1655.205313085827	1
0	12798	1657.205313085827	0
0	12929	1673.595759172082	1
0	12941	1675.595759172082	0
0	13089	1703.145059964515	1
0	13094	1703.326688795153	2
0	13104	1703.907849016432	3
0	13106	1705.145059964515	2
0	13123	1707.014681072914	3
0	13124	1707.014681072914	4
0	13125	1707.145059964515	3
0	13144	1709.145059964515	2
0	13161	1711.145059964515	1
0	13178	1712.601228430146	2
0	13180	1713.145059964515	1
0	13187	1713.213715664571	2
0	13199	1715.145059964515	1
0	13211	1715.329663080524	2
0	13217	1715.927313821692	3
0	13229	1716.652969522286	4
0	13235	1717.068982885485	5
0	13236	1717.145059964515	4
0	13261	1719.145059964515	3
0	13273	1721.145059964515	2
0	13282	1721.309600582244	3
0	13288	1721.878103712142	4
0	13295	1723.145059964515	3
0	13304	1725.145059964515	2
0	13315	1727.145059964515	1
0	13327	1729.145059964515	0
0	13419	1744.516059393341	1
0	13435	1746.456118517233	2
0	13436	1746.516059393341	1
0	13451	1748.136189169252	2
0	13455	1748.516059393341	1
0	13475	1750.516059393341	0
0	13481	1750.938450351341	1
0	13494	1752.516059393341	0
0	13504	1753.783416827141	1
0	13508	1754.516059393341	0
0	13577	1764.680216612071	1
0	13584	1765.93951634904	0
0	13607	1767.187069462134	1
0	13609	1767.93951634904	0
0	13716	1783.115451896186	1
0	13721	1783.129525077559	2
0	13725	1785.115451896186	1
0	13744	1787.115451896186	0
0	13771	1791.158546386703	1
0	13778	1792.146738486144	0
0	13929	1808.561785777101	1
0	13934	1809.26366666163	2
0	13935	1809.304008780003	1
0	13952	1811.304008780003	0
0	13967	1812.806356980917	1
0	13973	1813.149310406113	2
0	13974	1813.304008780003	1
0	13994	1815.304008780003	0
0	14006	1816.052150569154	1
0	14011	1817.304008780003	0
0	14029	1818.967235744786	1
0	14034	1819.055645823425	2
0	14035	1819.304008780003	1
0	14041	1819.523403483038	2
0	14055	1819.986746306483	3
0	14067	1821.304008780003	2
0	14086	1823.168952426227	3
0	14092	1823.304008780003	2
0	14109	1825.304008780003	1
0	14115	1825.317235728216	2
0	14131	1827.304008780003	1
0	14151	1828.898124357723	2
0	14156	1829.304008780003	1
0	14168	1831.304008780003	0
0	14174	1831.377799456002	1
0	14182	1833.304008780003	0
0	14375	1858.391870989826	1
0	14385	1859.755536144105	0
0	14420	1863.008268511015	1
0	14421	1863.008268511015	2
0	14431	1864.166999877114	1
0	14448	1866.166999877114	0
0	14471	1868.880311175014	1
0	14485	1870.383099873843	2
0	14486	1870.880311175014	1
0	14500	1872.880311175014	0
0	14587	1882.800274789562	1
0	14602	1884.494469325429	2
0	14603	1884.494469325429	3
0	14607	1884.800274789562	2
0	14624	1886.800274789562	1
0	14631	1887.621014066203	2
0	14641	1888.185259657749	3
0	14645	1888.800274789562	2
0	14665	1890.518701673652	3
0	14667	1890.800274789562	2
0	14689	1892.800274789562	1
0	14706	1894.800274789562	0
0	14771	1902.235623810386	1
0	14783	1903.18106410047	0
0	14793	1903.924049703649	1
0	14808	1905.18106410047	0
0	14822	1906.30540635362	1
0	14838	1906.996143590348	2
0	14840	1907.18106410047	1
0	14857	1908.449692295999	2
0	14862	1909.18106410047	1
0	14877	1910.8397515269	2
0	14878	1910.8397515269	3
0	14879	1911.18106410047	2
0	14885	1911.614382391525	3
0	14886	1911.614382391525	4
0	14897	1912.588633296965	5
0	14898	1913.18106410047	4
0	14907	1915.18106410047	3
0	14913	1915.240563607016	4
0	14928	1917.18106410047	3
0	14938	1917.585497407623	4
0	14965	1919.18106410047	3
0	14982	1921.18106410047	2
0	14999	1923.18106410047	1
0	15021	1925.18106410047	0
0	15164	1941.564039043345	1
0	15177	1943.257019114819	2
0	15178	1943.257019114819	3
0	15179	1943.564039043345	2
0	15195	1944.83062116618	3
0	15196	1945.564039043345	2
0	15207	1947.564039043345	1
0	15221	1949.564039043345	0
0	15235	1950.987452382474	1
0	15240	1951.564039043345	0
0	15295	1956.027665103475	1
0	15305	1957.107905812986	0
0	15320	1958.879896971243	1
0	15322	1959.107905812986	0
0	15478	1978.334688001208	1
0	15488	1980.326336502394	2
0	15490	1980.334688001208	1
0	15501	1982.334688001208	0
0	15608	2000.222582704982	1
0	15617	2002.222582704982	0
0	15796	2027.815408446176	1
0	15802	2027.984541304029	2
0	15809	2029.681195027839	1
0	15815	2029.822731706452	2
0	15831	2031.681195027839	1
0	15837	2031.866437566488	2
0	15853	2033.681195027839	1
0	15862	2035.269200638903	2
0	15870	2035.681195027839	1
0	15879	2037.681195027839	0
0	15885	2039.051153042586	1
0	15887	2039.681195027839	0
0	15894	2040.668833340484	1
0	15908	2041.681195027839	0
0	16000	2053.34859307368	1
0	16010	2054.127830768558	2
0	16011	2054.127830768558	3
0	16012	2054.416607168484	2
0	16028	2055.694558364936	3
0	16035	2056.093014817503	4
0	16037	2056.416607168484	3
0	16049	2058.001524262737	4
0	16054	2058.416607168484	3
0	16061	2058.70873183678	4
0	16065	2059.285786902727	5
0	16071	2059.307092564345	6
0	16075	2060.416607168484	5
0	16089	2062.416607168484	4
0	16104	2063.114149011176	5
0	16106	2064.416607168484	4
0	16117	2066.416607168484	3
0	16131	2067.906142490932	4
0	16138	2068.416607168484	3
0	16153	2070.416607168484	2
0	16167	2072.416607168484	1
0	16176	2074.416607168484	0
0	16289	2089.61880803723	1
0	16291	2090.144424325276	0
0	16363	2102.482694692726	1
0	16378	2104.324539830562	0
0	16453	2113.584911695244	1
0	16461	2114.321445653193	0
0	16504	2120.559495061118	1
0	16506	2121.489398304894	0
0	16523	2122.479146801966	1
0	16528	2123.489398304894	0
0	16557	2126.70840593532	1
0	16576	2128.70840593532	0
0	16812	2162.545457729975	1
0	16825	2164.385626562846	0
0	17092	2196.047424256837	1
0	17104	2197.662688147945	0
0	17171	2204.889732744566	1
0	17173	2205.264828622462	0
0	17257	2218.365129596853	1
0	17261	2219.201180617557	0
0	17335	2231.264617193383	1
0	17339	2231.335098565586	2
0	17342	2231.66080755992	1
0	17360	2232.682184504518	2
0	17365	2232.887030103229	3
0	17378	2233.66080755992	2
0	17398	2235.66080755992	1
0	17417	2236.986624418073	2
0	17430	2237.66080755992	1
0	17445	2239.66080755992	0
0	17451	2239.747696597462	1
0	17452	2239.747696597462	2
0	17465	2241.66080755992	1
0	17474	2242.440898161041	2
0	17484	2243.66080755992	1
0	17493	2245.66080755992	0
0	17500	2245.911994634708	1
0	17504	2247.66080755992	0
0	17565	2258.370649190969	1
0	17567	2258.78650247587	0
0	17636	2266.813314151316	1
0	17641	2267.89779972024	2
0	17642	2267.89779972024	3
0	17649	2268.801646034911	2
0	17663	2270.801646034911	1
0	17677	2272.242567307151	2
0	17686	2272.458400211372	3
0	17687	2272.801646034911	2
0	17701	2274.801646034911	1
0	17718	2276.801646034911	0
0	17725	2277.347224475665	1
0	17733	2277.900069212821	2
0	17740	2278.801646034911	1
0	17749	2280.801646034911	0
0	17760	2282.207444733016	1
0	17762	2282.801646034911	0
0	17816	2287.97934375775	1
0	17820	2289.867782609444	0
0	17829	2291.687208503585	1
0	17831	2291.867782609444	0
0	17867	2295.994813975104	1
0	17868	2296.427885998072	0
0	17918	2302.074813877291	1
0	17919	2302.175965406506	0
0	18022	2316.486920401441	1
0	18026	2317.099876940575	0
0	18038	2318.789593278187	1
0	18039	2318.789593278187	2
0	18040	2319.099876940575	1
0	18054	2320.815874624019	2
0	18056	2321.099876940575	1
0	18070	2323.012987410721	2
0	18072	2323.099876940575	1
0	18085	2324.722754953628	2
0	18089	2325.099876940575	1
0	18108	2327.099876940575	0
0	18204	2342.046150260333	1
0	18218	2344.046150260333	0
0	18494	2384.883170003188	1
0	18496	2385.064918837695	0
0	18509	2386.858689880786	1
0	18513	2387.064918837695	0
0	18523	2388.553867961523	1
0	18527	2389.064918837695	0
0	18595	2396.992168626105	1
0	18600	2397.043439525721	2
0	18611	2398.992168626105	1
0	18636	2400.992168626105	0
0	18693	2406.154452488228	1
0	18713	2408.154452488228	0
0	18783	2416.32596661483	1
0	18788	2417.17921945517	0
0	18803	2419.124103411364	1
0	18805	2419.17921945517	0
0	18813	2419.891191044976	1
0	18821	2421.17921945517	0
0	18831	2422.272108704046	1
0	18840	2423.17921945517	0
0	18976	2438.641117840589	1
0	18978	2439.651479940006	0
0	19026	2445.760656962189	1
0	19040	2447.217397158326	2
0	19041	2447.760656962189	1
0	19047	2447.898448959565	2
0	19062	2449.760656962189	1
0	19071	2451.277814556255	2
0	19079	2451.760656962189	1
0	19088	2452.691113356907	2
0	19093	2453.760656962189	1
0	19111	2455.72659596957	2
0	19112	2455.760656962189	1
0	19129	2457.760656962189	0
0	19213	2465.903380145845	1
0	19225	2467.190656095238	2
0	19230	2467.903380145845	1
0	19247	2469.903380145845	0
0	19315	2481.363018654815	1
0	19316	2482.942546183837	0
0	19363	2490.561149751127	1
0	19371	2491.700633217703	0
0	19444	2503.132013861194	1
0	19456	2504.563154686931	2
0	19457	2504.563154686931	3
0	19458	2504.569263117403	2
0	19472	2506.569263117403	1
0	19484	2507.653791520494	2
0	19494	2508.569263117403	1
0	19510	2509.835919969336	2
0	19519	2510.569263117403	1
0	19525	2512.569263117403	0
0	19589	2523.524415084524	1
0	19597	2525.456081911093	0
0	19620	2527.278290730487	1
0	19621	2527.456081911093	0
0	19703	2536.308335381461	1
0	19707	2538.308335381461	0
0	19760	2548.250747181204	1
0	19761	2548.576817183002	0
0	19820	2557.064893995601	1
0	19828	2558.344536476549	0
0	19836	2558.941153007786	1
0	19849	2560.344536476549	0
0	20040	2586.133517905557	1
0	20041	2586.133517905557	2
0	20043	2587.058859830478	1
0	20051	2588.241239196636	2
0	20053	2589.058859830478	1
0	20064	2591.058859830478	0
0	20081	2592.910885686367	1
0	20082	2592.910885686367	2
0	20083	2593.058859830478	1
0	20093	2594.581480947306	2
0	20094	2595.058859830478	1
0	20101	2595.352966775137	2
0	20108	2596.397101692767	3
0	20113	2597.058859830478	2
0	20127	2599.058859830478	1
0	20144	2600.708664937995	2
0	20146	2601.058859830478	1
0	20152	2603.058859830478	0
0	20163	2603.866789042674	1
0	20178	2605.058859830478	0
0	20255	2615.457215704127	1
0	20270	2617.457215704127	0
0	20310	2621.155661651086	1
0	20316	2621.472038618655	0
0	20511	2649.342972073431	1
0	20520	2651.342972073431	0
0	20527	2651.760764452988	1
0	20534	2653.342972073431	0
0	20584	2659.882672333353	1
0	20585	2659.882672333353	2
0	20592	2660.746907762098	1
0	20603	2662.746907762098	0
0	20675	2670.066986791226	1
0	20695	2671.603735764098	0
0	20822	2691.359670847744	1
0	20823	2692.056392487639	0
0	20907	2704.365710637642	1
0	20918	2705.218045233479	2
0	20919	2706.365710637642	1
0	20928	2707.215225928304	2
0	20929	2707.215225928304	3
0	20935	2708.365710637642	2
0	20944	2709.947465243712	3
0	20945	2709.947465243712	4
0	20949	2710.365710637642	3
0	20960	2712.365710637642	2
0	20982	2713.836323224722	3
0	20983	2713.836323224722	4
0	20984	2714.365710637642	3
0	21001	2716.365710637642	2
0	21014	2718.334684005729	3
0	21015	2718.365710637642	2
0	21029	2719.881216017884	3
0	21034	2719.884568964843	4
0	21040	2719.899708977831	5
0	21044	2720.365710637642	4
0	21061	2722.365710637642	3
0	21075	2724.365710637642	2
0	21087	2726.365710637642	1
0	21093	2728.365710637642	0
0	21369	2755.21546226311	1
0	21379	2756.064966425327	2
0	21381	2757.21546226311	1
0	21398	2758.323836566184	2
0	21399	2758.323836566184	3
0	21400	2759.21546226311	2
0	21412	2760.154260401475	3
0	21414	2761.21546226311	2
0	21434	2762.641099495919	3
0	21435	2763.21546226311	2
0	21452	2765.21546226311	1
0	21466	2767.21546226311	0
0	21514	2777.728231141486	1
0	21522	2778.29218288427	0
0	21863	2820.508448307444	1
0	21864	2820.508448307444	2
0	21872	2821.268381229824	3
0	21873	2821.448230459088	2
0	21880	2822.629093912231	3
0	21887	2823.448230459088	2
0	21893	2824.346504576142	3
0	21898	2825.448230459088	2
0	21904	2826.946330089791	3
0	21909	2827.448230459088	2
0	21915	2829.448230459088	1
0	21923	2831.448230459088	0
0	21933	2832.080953494164	1
0	21939	2833.448230459088	0
0	21951	2834.144647106574	1
0	21964	2835.253503039479	2
0	21966	2835.448230459088	1
0	21978	2837.448230459088	0
0	22043	2846.26294077073	1
0	22044	2847.289569038934	0
0	22063	2849.218699031442	1
0	22065	2849.289569038934	0
0	22193	2873.197306042402	1
0	22203	2874.923352006683	0
0	22285	2885.173121637552	1
0	22294	2887.173121637552	0
0	22306	2888.403109853104	1
0	22311	2889.173121637552	0
0	22318	2889.213348092026	1
0	22327	2889.884724627149	2
0	22337	2891.173121637552	1
0	22351	2893.173121637552	0
0	22400	2900.64475604635	1
0	22407	2902.64475604635	0
0	22425	2904.20612733401	1
0	22426	2904.64475604635	0
0	22450	2907.352371436775	1
0	22457	2909.352371436775	0
0	22499	2915.288844996635	1
0	22500	2915.960577092191	0
0	22538	2919.152043041891	1
0	22545	2921.152043041891	0
0	22556	2922.916802425946	1
0	22558	2923.152043041891	0
0	22571	2924.21328728118	1
0	22572	2925.152043041891	0
0	22626	2930.537516570878	1
0	22630	2931.426096788796	2
0	22648	2932.537516570878	1
0	22654	2933.155614687205	2
0	22665	2934.537516570878	1
0	22674	2935.864274321732	2
0	22679	2936.537516570878	1
0	22688	2938.537516570878	0
0	22812	2955.817006893844	1
0	22813	2956.55278130429	0
0	22950	2970.364850355969	1
0	22968	2971.820673414652	0
0	22993	2975.19620784985	1
0	23001	2976.675160404199	0
0	23010	2976.891361012749	1
0	23026	2978.675160404199	0
0	23085	2985.40264088844	1
0	23087	2985.443543914265	0
0	23103	2987.363862213445	1
0	23104	2987.443543914265	0
0	23214	3004.095265539461	1
0	23218	3004.253643273254	2
0	23223	3006.095265539461	1
0	23237	3008.095265539461	0
0	23479	3035.094844852636	1
0	23480	3035.094844852636	2
0	23502	3036.150519118925	1
0	23519	3038.150519118925	0
0	23529	3038.8285587588	1
0	23536	3040.150519118925	0
0	23542	3040.262203583104	1
0	23551	3040.515415422007	2
0	23558	3042.150519118925	1
0	23578	3044.150519118925	0
0	23691	3058.521152148397	1
0	23705	3059.060875264127	0
0	23774	3066.913424516285	1
0	23775	3066.913424516285	2
0	23776	3067.814914943198	1
0	23788	3068.925250147222	2
0	23794	3069.719199958532	3
0	23795	3069.814914943198	2
0	23812	3071.814914943198	1
0	23826	3073.814914943198	0
0	23852	3078.322482406037	1
0	23864	3079.820004930237	0
0	23876	3080.874478920363	1
0	23881	3081.820004930237	0
0	23888	3082.045477163715	1
0	23900	3083.820004930237	0
0	23924	3086.327992705409	1
0	23931	3088.327992705409	0
0	23978	3093.885877868567	1
0	23985	3094.156426000714	0
0	24155	3119.492499161402	1
0	24167	3121.492499161402	0
0	24173	3122.388665761639	1
0	24181	3123.492499161402	0
0	24196	3125.295436495604	1
0	24197	3125.492499161402	0
0	24246	3133.462419994112	1
0	24253	3134.545884705855	2
0	24255	3135.462419994112	1
0	24266	3137.462419994112	0