version 3
run k_MM1_rand-23-20221127-16:03:21-5740
attr configname k_MM1_rand
attr datetime 20221127-16:03:21
attr datetimef 20221127-160321
attr experiment k_MM1_rand
attr inifile omnetpp.ini
attr iterationvars "$time=2.0, $num=5, $0=33434, $1=56673, $2=23567"
attr iterationvarsd time=2.0/num=5/33434/56673/23567
attr iterationvarsf time=2.0,num=5,33434,56673,23567-
attr measurement "$time=2.0, $num=5, $0=33434, $1=56673, $2=23567"
attr network randkMM1
attr processid 5740
attr repetition 3
attr replication #3
attr resultdir results
attr runnumber 23
attr seedset 23
itervar num 5
itervar time 2.0
config description "MM1 module k-times random"
config network randkMM1
config **.source.interArrivalTime "truncnormal(0.5s, 1.5s)"
config **.serviceTime 2.0s
config **.c 5
config **.capacity 10000
config record-eventlog false
config **.scalar-recording true
config **.vector-recording true
config repeat 4
config seed-1-mt 33434
config seed-2-mt 56673
config seed-3-mt 23567
config output-vector-file k_MM1_rand-5-2.0-results/3.vec
config output-scalar-file k_MM1_rand-5-2.0-results/3.sca

vector 0 randkMM1.mm1[1] queueLength:vector ETV
attr interpolationmode none
attr recordingmode vector
attr title "queue length"
vector 1 randkMM1.mm1[2] util:vector ETV
attr interpolationmode none
attr recordingmode vector
attr title resources
vector 2 randkMM1.mm1[3] util:vector ETV
attr interpolationmode none
attr recordingmode vector
attr title resources
vector 3 randkMM1.mm1[1] util:vector ETV
attr interpolationmode none
attr recordingmode vector
attr title resources
vector 4 randkMM1.mm1[4] queueLength:vector ETV
attr interpolationmode none
attr recordingmode vector
attr title "queue length"
vector 5 randkMM1.mm1[4] util:vector ETV
attr interpolationmode none
attr recordingmode vector
attr title resources
vector 6 randkMM1.mm1[0] util:vector ETV
attr interpolationmode none
attr recordingmode vector
attr title resources
vector 7 randkMM1.mm1[0] queueLength:vector ETV
attr interpolationmode none
attr recordingmode vector
attr title "queue length"
vector 8 randkMM1.mm1[3] queueLength:vector ETV
attr interpolationmode none
attr recordingmode vector
attr title "queue length"
vector 9 randkMM1.mm1[2] queueLength:vector ETV
attr interpolationmode none
attr recordingmode vector
attr title "queue length"
0	10	11.943993366608	1
0	21	12.949115154061	2
0	22	13.943993366608	1
0	37	15.603879816852	2
0	38	15.943993366608	1
0	60	17.943993366608	0
0	69	18.431346004308	1
0	74	19.943993366608	0
0	174	33.518660191398	1
0	176	33.910770761116	0
0	214	38.287344839539	1
0	217	38.933994847081	0
0	399	69.316513904126	1
0	401	69.833210815444	0
0	435	74.457689712711	1
0	444	75.445290404409	2
0	445	75.64884905174	1
0	454	77.64884905174	0
0	532	90.948497867755	1
0	536	91.012172769425	2
0	554	92.265444328268	3
0	562	92.948497867755	2
0	578	94.473099825544	3
0	589	94.948497867755	2
0	603	96.948497867755	1
0	618	98.020128125896	2
0	630	98.948497867755	1
0	639	99.77071807602	2
0	647	100.279564825673	3
0	648	100.279564825673	4
0	657	100.948497867755	3
0	676	102.639577910649	4
0	677	102.948497867755	3
0	687	103.888956687768	4
0	704	104.948497867755	3
0	724	106.467777548092	4
0	725	106.467777548092	5
0	731	106.948497867755	4
0	750	108.411296427866	5
0	751	108.948497867755	4
0	763	110.948497867755	3
0	777	111.969751264723	4
0	787	112.948497867755	3
0	807	114.948497867755	2
0	819	116.948497867755	1
0	830	118.948497867755	0
0	1439	203.26126889361	1
0	1446	205.26126889361	0
0	1453	205.913805672566	1
0	1457	206.093608630601	2
0	1467	207.26126889361	1
0	1474	207.829315789615	2
0	1484	208.222366039252	3
0	1485	208.222366039252	4
0	1492	209.26126889361	3
0	1505	210.951246246237	4
0	1506	211.26126889361	3
0	1530	213.26126889361	2
0	1539	214.825650465969	3
0	1550	215.26126889361	2
0	1562	217.26126889361	1
0	1577	219.260001040299	2
0	1578	219.26126889361	1
0	1590	221.26126889361	0
0	1669	233.005540439402	1
0	1670	233.005540439402	2
0	1679	234.171575891227	1
0	1696	236.171575891227	0
0	1858	262.129102044646	1
0	1862	263.69156284946	2
0	1870	264.129102044646	1
0	1881	266.129102044646	0
0	1900	267.288808739385	1
0	1905	268.129102044646	0
0	1911	268.415771575093	1
0	1927	270.129102044646	0
0	1942	271.206445756641	1
0	1944	272.129102044646	0
0	1982	276.506371087735	1
0	1995	278.299040306308	2
0	1996	278.506371087735	1
0	2008	279.06268638705	2
0	2009	279.06268638705	3
0	2014	279.748527522931	4
0	2015	280.506371087735	3
0	2026	282.506371087735	2
0	2038	284.506371087735	1
0	2044	285.169452775579	2
0	2051	286.506371087735	1
0	2062	286.826160569822	2
0	2063	286.826160569822	3
0	2071	287.649434531464	4
0	2080	288.506371087735	3
0	2092	290.506371087735	2
0	2102	292.024005950935	3
0	2106	292.506371087735	2
0	2115	294.195862182346	3
0	2120	294.506371087735	2
0	2131	296.506371087735	1
0	2143	297.547027353542	2
0	2150	298.506371087735	1
0	2172	300.506371087735	0
0	2364	324.883403308531	1
0	2365	325.026748647054	0
0	2394	327.824611547515	1
0	2398	328.201493060037	2
0	2406	329.824611547515	1
0	2417	331.824611547515	0
0	2583	351.611857902517	1
0	2589	351.624250867579	2
0	2591	352.316143655326	1
0	2610	354.030885317892	2
0	2611	354.030885317892	3
0	2612	354.316143655326	2
0	2628	356.316143655326	1
0	2637	356.827972467805	2
0	2650	358.316143655326	1
0	2677	360.316143655326	0
0	2712	363.125349088538	1
0	2735	365.125349088538	0
0	2752	367.010609599311	1
0	2757	367.125349088538	0
0	3014	400.469710324925	1
0	3020	400.50759982068	2
0	3021	401.136136174661	1
0	3037	402.83799087608	2
0	3038	403.136136174661	1
0	3049	403.76907553155	2
0	3057	405.136136174661	1
0	3076	407.136136174661	0
0	3166	416.165799462302	1
0	3176	418.165799462302	0
0	3186	419.234032436275	1
0	3190	420.165799462302	0
0	3206	420.776690896212	1
0	3211	422.165799462302	0
0	3280	426.728599563283	1
0	3282	427.526670491712	0
0	3371	439.290914322881	1
0	3372	441.290914322881	0
0	3378	441.391387006741	1
0	3379	441.391387006741	2
0	3385	443.290914322881	1
0	3394	445.290914322881	0
0	3406	446.571153636685	1
0	3417	447.290914322881	0
0	3423	447.602642859907	1
0	3442	449.290914322881	0
0	3448	450.064294777324	1
0	3469	451.290914322881	0
0	3581	466.645338527103	1
0	3583	467.075899697109	0
0	3593	468.062862819612	1
0	3600	469.075899697109	0
0	3662	475.953390193424	1
0	3663	475.953390193424	2
0	3673	477.722748270641	1
0	3690	479.722748270641	0
0	3696	480.105591342433	1
0	3705	480.256402151904	2
0	3709	481.722748270641	1
0	3723	483.722748270641	0
0	3730	483.768549421092	1
0	3740	485.679910061324	2
0	3742	485.722748270641	1
0	3756	487.722748270641	0
0	3771	488.348202942688	1
0	3778	489.722748270641	0
0	3787	490.151096511601	1
0	3792	490.338972312029	2
0	3793	490.338972312029	3
0	3805	491.722748270641	2
0	3815	492.376519695787	3
0	3822	493.722748270641	2
0	3829	494.147983446164	3
0	3834	494.251688621593	4
0	3841	495.722748270641	3
0	3850	497.722748270641	2
0	3858	499.722748270641	1
0	3867	501.722748270641	0
0	3922	507.503331530732	1
0	3923	507.503331530732	2
0	3928	508.92531202155	1
0	3943	510.92531202155	0
0	3955	512.394104373359	1
0	3957	512.92531202155	0
0	4061	523.378044213762	1
0	4064	523.63256563199	0
0	4546	580.843578303402	1
0	4547	580.843578303402	2
0	4548	581.7177931003	1
0	4560	581.97531946686	2
0	4565	582.412325031016	3
0	4567	583.7177931003	2
0	4581	585.7177931003	1
0	4600	587.7177931003	0
0	4667	604.208950286574	1
0	4675	605.870808385368	0
0	4717	610.682299389075	1
0	4722	610.79657783911	2
0	4727	610.798028769818	3
0	4730	612.371021685511	2
0	4738	612.626151966181	3
0	4739	612.626151966181	4
0	4749	614.371021685511	3
0	4765	616.371021685511	2
0	4774	618.153917951994	3
0	4776	618.371021685511	2
0	4790	620.371021685511	1
0	4804	622.371021685511	0
0	4868	630.235787941522	1
0	4876	631.653337859949	0
0	4895	632.752953650263	1
0	4902	633.653337859949	0
0	4920	634.667894381897	1
0	4932	635.653337859949	0
0	5026	644.038587106785	1
0	5027	644.038587106785	2
0	5035	645.25611856664	1
0	5056	647.25611856664	0
0	5073	648.246536812669	1
0	5078	649.25611856664	0
0	5124	655.585416915358	1
0	5136	657.585416915358	0
0	5143	658.186127952132	1
0	5155	659.585416915358	0
0	5182	662.396683124683	1
0	5192	664.396683124683	0
0	5232	669.560166211471	1
0	5239	671.560166211471	0
0	5300	684.891329512318	1
0	5302	685.991296590923	0
0	5312	686.552848164012	1
0	5324	687.986808060363	2
0	5325	687.986808060363	3
0	5326	687.991296590923	2
0	5333	688.121378093186	3
0	5340	689.991296590923	2
0	5357	691.775477960815	3
0	5359	691.991296590923	2
0	5373	693.991296590923	1
0	5383	694.972377516876	2
0	5397	695.991296590923	1
0	5422	697.991296590923	0
0	5489	706.462116014002	1
0	5497	707.848339845076	0
0	5506	707.896716022047	1
0	5521	708.79180171182	2
0	5522	708.79180171182	3
0	5523	709.848339845076	2
0	5544	710.481309139608	3
0	5545	711.848339845076	2
0	5554	713.848339845076	1
0	5567	714.584354239566	2
0	5568	715.848339845076	1
0	5580	717.111813689947	2
0	5581	717.111813689947	3
0	5582	717.848339845076	2
0	5591	719.104007309117	3
0	5593	719.848339845076	2
0	5608	721.115843030911	3
0	5613	721.33660741845	4
0	5614	721.848339845076	3
0	5628	723.848339845076	2
0	5650	725.848339845076	1
0	5662	726.862115559033	2
0	5664	727.848339845076	1
0	5680	728.992148929242	2
0	5686	729.848339845076	1
0	5703	731.848339845076	0
0	5948	760.969877364478	1
0	5953	761.858753304165	0
0	6027	771.778002765242	1
0	6031	772.233972351023	2
0	6039	773.778002765242	1
0	6045	774.163068142175	2
0	6050	775.778002765242	1
0	6059	777.521938478018	2
0	6061	777.778002765242	1
0	6067	779.778002765242	0
0	6073	780.788438948472	1
0	6074	780.788438948472	2
0	6079	781.306683641892	3
0	6080	781.778002765242	2
0	6086	783.778002765242	1
0	6093	783.859380288003	2
0	6094	785.778002765242	1
0	6110	787.778002765242	0
0	6123	789.150053230082	1
0	6127	789.778002765242	0
0	6284	809.264310273616	1
0	6309	811.264310273616	0
0	6320	811.852797176165	1
0	6334	813.264310273616	0
0	6355	814.504049793353	1
0	6359	815.264310273616	0
0	6435	823.418754473316	1
0	6450	825.418754473316	0
0	6456	825.787015401842	1
0	6461	826.016917237853	2
0	6472	827.418754473316	1
0	6484	829.418754473316	0
0	6499	831.371791150271	1
0	6500	831.418754473316	0
0	6698	860.872813049999	1
0	6715	862.872813049999	0
0	6727	863.832797396455	1
0	6732	864.872813049999	0
0	6741	866.137925242142	1
0	6746	866.872813049999	0
0	6784	870.242974958068	1
0	6803	871.791541086118	0
0	6856	878.03387408842	1
0	6871	879.668308366826	0
0	6972	891.807555741651	1
0	6982	892.556712121898	0
0	7064	903.829417731567	1
0	7073	905.829417731567	0
0	7285	939.815419933815	1
0	7293	941.226566514019	0
0	7533	974.508717414994	1
0	7545	976.09394341267	0
0	7557	976.70456100671	1
0	7558	976.70456100671	2
0	7562	978.09394341267	1
0	7584	980.09394341267	0
0	7590	980.168838398607	1
0	7609	982.09394341267	0
0	7688	991.50019923968	1
0	7689	991.68428294722	0
0	7736	998.833414215986	1
0	7759	999.700869591347	0
0	7859	1009.485590006974	1
0	7864	1009.818061747745	0
0	7871	1009.839179216463	1
0	7881	1011.818061747745	0
0	7963	1020.821159853858	1
0	7971	1021.975757331091	0
0	8003	1024.874927051506	1
0	8010	1025.400348400295	2
0	8021	1026.132097495942	1
0	8033	1027.081337949009	2
0	8041	1028.132097495942	1
0	8053	1028.849989719212	2
0	8063	1030.132097495942	1
0	8082	1032.132097495942	0
0	8097	1032.521062209018	1
0	8107	1034.132097495942	0
0	8126	1034.588564410105	1
0	8131	1036.132097495942	0
0	8210	1045.098835777945	1
0	8218	1045.585625955577	2
0	8220	1046.044523694595	1
0	8242	1048.044523694595	0
0	8573	1088.463622553267	1
0	8584	1089.831865319517	0
0	8666	1098.220552370295	1
0	8677	1099.89041943408	2
0	8679	1100.027069015104	1
0	8687	1100.37992756671	2
0	8692	1102.027069015104	1
0	8699	1102.183604033325	2
0	8703	1103.042658980447	3
0	8713	1104.027069015104	2
0	8735	1106.027069015104	1
0	8742	1106.137795113155	2
0	8765	1108.027069015104	1
0	8777	1110.027069015104	0
0	9007	1140.653278412202	1
0	9020	1141.808126653655	2
0	9022	1142.022986895896	1
0	9036	1144.022986895896	0
0	9043	1144.558319138796	1
0	9058	1146.022986895896	0
0	9072	1146.985245529737	1
0	9077	1148.022986895896	0
0	9185	1160.343215427591	1
0	9195	1161.944800841256	0
0	9288	1172.974676211835	1
0	9295	1174.858607134991	0
0	9316	1178.346222289527	1
0	9328	1180.346222289527	0
0	9470	1198.414181299766	1
0	9475	1199.169637457878	2
0	9487	1199.918114338949	1
0	9504	1201.918114338949	0
0	9697	1228.385374534792	1
0	9703	1230.026469590478	0
0	9711	1230.968067935917	1
0	9724	1232.026469590478	0
0	9788	1242.853140824593	1
0	9794	1242.922769135239	2
0	9796	1243.537893569087	1
0	9804	1245.537893569087	0
0	9955	1262.704425544032	1
0	9969	1263.633300911303	2
0	9971	1263.719186467582	1
0	9983	1265.719186467582	0
0	9992	1266.072371345415	1
0	10005	1267.719186467582	0
0	10070	1277.165748803312	1
0	10080	1277.574574680483	0
0	10095	1277.971345875419	1
0	10096	1277.971345875419	2
0	10100	1279.574574680483	1
0	10114	1281.574574680483	0
0	10141	1284.685098267955	1
0	10142	1286.402359647031	0
0	10292	1305.142751117973	1
0	10294	1305.526912018716	0
0	10499	1330.150277735213	1
0	10500	1332.150277735213	0
0	10512	1333.967480848026	1
0	10518	1334.150277735213	0
0	10527	1335.373429674471	1
0	10532	1336.150277735213	0
0	10631	1348.311698644598	1
0	10635	1348.834065480155	2
0	10636	1348.834065480155	3
0	10637	1350.311698644598	2
0	10644	1351.111387368756	3
0	10645	1352.311698644598	2
0	10654	1353.765768242548	3
0	10656	1354.311698644598	2
0	10672	1356.311698644598	1
0	10679	1356.782843561411	2
0	10698	1357.784874994795	3
0	10699	1358.311698644598	2
0	10724	1360.311698644598	1
0	10741	1362.311698644598	0
0	10836	1372.196309234187	1
0	10837	1372.938341337929	0
0	10970	1388.182181572686	1
0	10971	1388.468066582475	0
0	11290	1427.812003243423	1
0	11295	1427.839173431207	2
0	11296	1428.669187496063	1
0	11313	1430.669187496063	0
0	11364	1436.139398617378	1
0	11365	1436.7989002918	0
0	11524	1459.450446367859	1
0	11535	1461.213335956757	2
0	11536	1461.450446367859	1
0	11551	1462.973912886487	2
0	11555	1463.450446367859	1
0	11567	1464.956521487781	2
0	11569	1465.450446367859	1
0	11578	1467.450446367859	0
0	11585	1467.687501505492	1
0	11596	1469.450446367859	0
0	11883	1502.882760100111	1
0	11884	1502.882760100111	2
0	11890	1503.786017245879	1
0	11896	1504.168309572297	2
0	11912	1505.786017245879	1
0	11931	1507.786017245879	0
0	11938	1508.036879501399	1
0	11952	1509.388810836696	2
0	11953	1509.786017245879	1
0	11959	1510.07961262236	2
0	11971	1510.963728836739	3
0	11980	1511.786017245879	2
0	11989	1513.786017245879	1
0	12003	1515.786017245879	0
0	12016	1517.482449759377	1
0	12017	1517.786017245879	0
0	12033	1520.614575530297	1
0	12041	1521.889732375828	2
0	12047	1522.614575530297	1
0	12064	1524.097314536217	2
0	12069	1524.614575530297	1
0	12084	1524.925747133377	2
0	12092	1525.578490681383	3
0	12096	1525.810350750634	4
0	12097	1525.810350750634	5
0	12101	1526.395681388125	6
0	12103	1526.614575530297	5
0	12115	1528.614575530297	4
0	12121	1528.674079170338	5
0	12126	1530.614575530297	4
0	12138	1531.296974439141	5
0	12140	1532.614575530297	4
0	12149	1533.465625248748	5
0	12154	1533.546537730747	6
0	12156	1534.614575530297	5
0	12163	1534.812206383909	6
0	12170	1536.614575530297	5
0	12182	1537.702440663644	6
0	12184	1538.614575530297	5
0	12203	1540.614575530297	4
0	12217	1542.614575530297	3
0	12239	1544.614575530297	2
0	12251	1546.614575530297	1
0	12257	1546.874293549914	2
0	12258	1546.874293549914	3
0	12262	1548.614575530297	2
0	12278	1550.614575530297	1
0	12290	1551.953110781922	2
0	12295	1552.614575530297	1
0	12301	1554.614575530297	0
0	12461	1581.85064660391	1
0	12467	1581.922531592112	2
0	12473	1583.467581747235	1
0	12489	1584.804682666467	2
0	12490	1585.467581747235	1
0	12504	1587.467581747235	0
0	12533	1590.582608665134	1
0	12553	1592.582608665134	0
0	12754	1612.390030173567	1
0	12757	1613.392120955621	0
0	12777	1614.202160432033	1
0	12789	1615.179082500715	2
0	12792	1615.392120955621	1
0	12812	1617.392120955621	0
0	12823	1618.526860321897	1
0	12829	1619.392120955621	0
0	12838	1619.544009832849	1
0	12842	1619.644314806978	2
0	12851	1621.392120955621	1
0	12865	1623.392120955621	0
0	12906	1626.41612595875	1
0	12912	1627.483115175185	2
0	12923	1627.785759150617	1
0	12939	1628.698777486177	2
0	12948	1629.785759150617	1
0	12968	1631.785759150617	0
0	13128	1650.060218475224	1
0	13139	1652.060218475224	0
0	13254	1671.327724355996	1
0	13258	1673.327724355996	0
0	13272	1674.42366870308	1
0	13274	1675.327724355996	0
0	13371	1687.802025599256	1
0	13389	1688.958252023011	2
0	13394	1689.802025599256	1
0	13406	1691.370887071424	2
0	13413	1691.802025599256	1
0	13430	1693.802025599256	0
0	13440	1694.299832852155	1
0	13444	1694.720338018161	2
0	13456	1695.675737920632	3
0	13457	1695.802025599256	2
0	13477	1697.802025599256	1
0	13489	1699.802025599256	0
0	13496	1699.815162913956	1
0	13505	1701.802025599256	0
0	13573	1710.863173278155	1
0	13580	1712.863173278155	0
0	13699	1733.110642745101	1
0	13705	1733.857495387197	0
0	13717	1734.114255665334	1
0	13727	1735.857495387197	0
0	13740	1736.970601931549	1
0	13744	1737.857495387197	0
0	13762	1739.702301566286	1
0	13763	1739.857495387197	0
0	13784	1741.297588603379	1
0	13785	1741.857495387197	0
0	14134	1789.766212104196	1
0	14153	1790.953863217977	0
0	14170	1792.934535472433	1
0	14171	1792.934535472433	2
0	14172	1792.953863217977	1
0	14187	1794.749435897477	2
0	14192	1794.953863217977	1
0	14204	1796.953863217977	0
0	14336	1818.81523110189	1
0	14343	1819.587374069444	0
0	14594	1846.549286677424	1
0	14604	1847.70728218645	0
0	14802	1877.521210247424	1
0	14807	1877.705617722569	2
0	14819	1879.521210247424	1
0	14836	1881.035833577315	2
0	14837	1881.035833577315	3
0	14841	1881.521210247424	2
0	14865	1883.521210247424	1
0	14884	1885.520432022325	2
0	14885	1885.521210247424	1
0	14904	1887.521210247424	0
0	14914	1888.451697558208	1
0	14921	1889.521210247424	0
0	15145	1923.052798999848	1
0	15148	1923.389030575459	0
0	15159	1925.256566979292	1
0	15160	1925.256566979292	2
0	15161	1925.389030575459	1
0	15173	1926.137751907518	2
0	15174	1927.389030575459	1
0	15190	1929.019788020445	2
0	15191	1929.389030575459	1
0	15202	1930.285754228128	2
0	15207	1931.389030575459	1
0	15226	1933.389030575459	0
0	15261	1937.06384398504	1
0	15268	1937.797238620071	2
0	15269	1937.797238620071	3
0	15276	1938.190956471612	4
0	15277	1938.190956471612	5
0	15281	1938.652358224124	6
0	15284	1938.804947186878	5
0	15300	1940.804947186878	4
0	15307	1940.807827757803	5
0	15311	1942.804947186878	4
0	15325	1944.804947186878	3
0	15338	1946.395990152871	4
0	15344	1946.804947186878	3
0	15353	1948.804947186878	2
0	15364	1950.104365506817	3
0	15365	1950.104365506817	4
0	15373	1950.750710573814	5
0	15374	1950.804947186878	4
0	15388	1952.804947186878	3
0	15405	1954.804947186878	2
0	15416	1956.804947186878	1
0	15435	1958.804947186878	0
0	15447	1959.327892601981	1
0	15462	1960.804947186878	0
0	15468	1960.961008123173	1
0	15469	1960.961008123173	2
0	15485	1962.013340092411	3
0	15492	1962.804947186878	2
0	15510	1964.156036747458	3
0	15514	1964.804947186878	2
0	15523	1966.804947186878	1
0	15539	1968.804947186878	0
0	15723	1993.117648241301	1
0	15730	1994.224576752743	2
0	15733	1994.763898846515	1
0	15752	1996.763898846515	0
0	15769	1998.053433970977	1
0	15781	1998.671729809836	2
0	15784	1998.763898846515	1
0	15799	2000.763898846515	0
0	15922	2013.945879977785	1
0	15932	2015.889562445141	2
0	15933	2015.945879977785	1
0	15945	2017.495313154927	2
0	15946	2017.495313154927	3
0	15955	2017.945879977785	2
0	15961	2019.546957809723	3
0	15969	2019.945879977785	2
0	15976	2021.0437766293	3
0	15990	2021.945879977785	2
0	16007	2023.945879977785	1
0	16032	2025.920498316232	2
0	16034	2025.945879977785	1
0	16041	2026.757835713407	2
0	16051	2027.945879977785	1
0	16063	2029.945879977785	0
0	16110	2037.311709521588	1
0	16115	2037.764241681733	2
0	16120	2038.109741953689	3
0	16125	2039.24878032586	2
0	16147	2041.24878032586	1
0	16164	2043.24878032586	0
0	16170	2043.724751905942	1
0	16181	2045.24878032586	0
0	16323	2063.307343217618	1
0	16330	2064.573532892213	0
0	16344	2066.276804454366	1
0	16345	2066.276804454366	2
0	16352	2066.573532892213	1
0	16366	2068.573532892213	0
0	16499	2087.539265171788	1
0	16511	2089.539265171788	0
0	16521	2091.02607317909	1
0	16522	2091.539265171788	0
0	16587	2100.802287376323	1
0	16588	2100.882162072559	0
0	16803	2134.015378871018	1
0	16805	2134.079663782674	0
0	16850	2141.988086444786	1
0	16853	2142.99748569004	0
0	16864	2144.258487539223	1
0	16866	2144.99748569004	0
0	16917	2152.088803635826	1
0	16923	2153.299454017787	0
0	16936	2154.65318583647	1
0	16940	2155.299454017787	0
0	17131	2186.519925746981	1
0	17141	2188.519925746981	0
0	17266	2209.7179423342	1
0	17276	2211.7179423342	0
0	17283	2212.076342877735	1
0	17289	2213.7179423342	0
0	17430	2235.403641223255	1
0	17440	2237.189990836692	2
0	17442	2237.403641223255	1
0	17456	2239.403641223255	0
0	17470	2241.118225331195	1
0	17471	2241.118225331195	2
0	17475	2241.403641223255	1
0	17484	2243.403641223255	0
0	17605	2255.721655790096	1
0	17615	2256.972767656731	0
0	17713	2264.655436481852	1
0	17718	2265.532794430665	0
0	17826	2278.635696219259	1
0	17828	2279.124186370469	0
0	17856	2283.402977241573	1
0	17857	2283.402977241573	2
0	17858	2283.496084107511	1
0	17881	2285.312646070685	2
0	17882	2285.496084107511	1
0	17902	2287.496084107511	0
0	17953	2295.055763301644	1
0	17965	2296.257650664352	0
0	17987	2299.104563013621	1
0	17991	2301.104563013621	0
0	18027	2306.595285837066	1
0	18030	2306.878846643451	0
0	18044	2308.783611729101	1
0	18046	2308.878846643451	0
0	18083	2314.665542427163	1
0	18093	2316.529402760543	2
0	18094	2316.529402760543	3
0	18095	2316.665542427163	2
0	18107	2318.651816331965	3
0	18108	2318.665542427163	2
0	18117	2320.665542427163	1
0	18126	2321.390799141576	2
0	18127	2321.390799141576	3
0	18128	2322.665542427163	2
0	18135	2323.619208424637	3
0	18136	2324.665542427163	2
0	18142	2326.665542427163	1
0	18148	2327.015434698036	2
0	18150	2328.665542427163	1
0	18160	2329.086827156626	2
0	18165	2329.549732143629	3
0	18166	2330.665542427163	2
0	18180	2332.665542427163	1
0	18186	2332.739659259643	2
0	18194	2333.205562650995	3
0	18195	2333.205562650995	4
0	18200	2333.452023676568	5
0	18204	2334.665542427163	4
0	18210	2336.665542427163	3
0	18220	2337.379991374774	4
0	18221	2338.665542427163	3
0	18232	2340.665542427163	2
0	18239	2341.711259942638	3
0	18248	2342.665542427163	2
0	18265	2344.665542427163	1
0	18274	2346.665542427163	0
0	18305	2352.939825377956	1
0	18307	2353.166123140273	0
0	18318	2353.574028453477	1
0	18323	2355.166123140273	0
0	18502	2371.541682470793	1
0	18519	2373.541682470793	0
0	18753	2402.097364071251	1
0	18762	2402.967057235373	0
0	18948	2430.256712100555	1
0	18950	2430.515439957499	0
0	19020	2437.775369462529	1
0	19025	2439.235956062554	0
0	19041	2441.211263665935	1
0	19043	2441.235956062554	0
0	19060	2442.769151328083	1
0	19065	2443.183595098479	2
0	19070	2443.235956062554	1
0	19090	2445.235956062554	0
0	19149	2451.415158049869	1
0	19156	2452.301860703343	2
0	19163	2453.125532227239	1
0	19169	2453.259984762214	2
0	19188	2455.125532227239	1
0	19203	2456.664443789151	2
0	19205	2457.125532227239	1
0	19224	2459.125532227239	0
0	19289	2466.903894600738	1
0	19294	2467.07407369806	2
0	19302	2467.608975838186	1
0	19317	2469.608975838186	0
0	19391	2479.562739516097	1
0	19401	2481.423736774697	0
0	19519	2495.965403714252	1
0	19526	2496.867557078391	0
0	19824	2536.09871423355	1
0	19833	2538.09871423355	0
0	19840	2538.652934431807	1
0	19849	2540.09871423355	0
0	19948	2558.376991290626	1
0	19954	2560.376991290626	0
0	19994	2565.394721617866	1
0	20001	2567.394721617866	0
0	20010	2568.819589073068	1
0	20012	2569.394721617866	0
0	20019	2570.630143462566	1
0	20023	2571.394721617866	0
0	20142	2587.227759754007	1
0	20143	2587.272247606439	0
0	20152	2588.026944769187	1
0	20162	2589.272247606439	0
0	20336	2612.458404208796	1
0	20348	2613.661364105565	2
0	20352	2614.399826966264	1
0	20374	2616.399826966264	0
0	20380	2616.918710312817	1
0	20381	2616.918710312817	2
0	20398	2618.399826966264	1
0	20418	2620.399826966264	0
0	20524	2635.671847093867	1
0	20526	2635.785269428287	0
0	20555	2638.906297722399	1
0	20567	2640.906297722399	0
0	20584	2642.771275971969	1
0	20585	2642.771275971969	2
0	20586	2642.906297722399	1
0	20600	2644.906297722399	0
0	20612	2645.598674283878	1
0	20627	2646.906297722399	0
0	20633	2647.483861438587	1
0	20654	2648.906297722399	0
0	20661	2648.938038247646	1
0	20681	2650.906297722399	0
0	20947	2677.383523374445	1
0	20972	2679.044249942444	0
0	21005	2682.43765882622	1
0	21019	2684.177506476236	2
0	21020	2684.43765882622	1
0	21034	2686.43765882622	0
0	21044	2687.382566646362	1
0	21051	2688.43765882622	0
0	21060	2689.676274361769	1
0	21065	2690.43765882622	0
0	21079	2691.058900655191	1
0	21087	2692.427862539191	2
0	21089	2692.43765882622	1
0	21106	2694.43765882622	0
0	21112	2694.841764267138	1
0	21120	2696.43765882622	0
0	21126	2697.174137227741	1
0	21127	2697.174137227741	2
0	21134	2698.400266126409	3
0	21135	2698.400266126409	4
0	21136	2698.43765882622	3
0	21146	2699.419946542665	4
0	21147	2700.43765882622	3
0	21154	2700.701256842265	4
0	21158	2702.43765882622	3
0	21174	2704.43765882622	2
0	21183	2706.43765882622	1
0	21194	2708.43765882622	0
0	21227	2711.514536722663	1
0	21237	2712.824303687347	0
0	21294	2720.515358809054	1
0	21306	2722.515358809054	0
0	21381	2731.34047540407	1
0	21389	2733.052998433564	0
0	21408	2734.136292447395	1
0	21417	2734.695212323231	2
0	21418	2735.052998433564	1
0	21438	2737.052998433564	0
0	21535	2748.895597209398	1
0	21537	2749.45294659216	0
0	21546	2749.506753175845	1
0	21551	2751.45294659216	0
0	21562	2751.778716891821	1
0	21567	2753.45294659216	0
0	21574	2753.501077772919	1
0	21586	2755.45294659216	0
0	21709	2772.817813753077	1
0	21716	2773.822540638252	0
0	21732	2774.905261596979	1
0	21741	2775.822540638252	0
0	21770	2778.267961503515	1
0	21790	2780.267961503515	0
0	21799	2781.279225248501	1
0	21800	2781.279225248501	2
0	21807	2781.449587344962	3
0	21815	2782.267961503515	2
0	21829	2784.267961503515	1
0	21843	2786.267961503515	0
0	22194	2833.584991267737	1
0	22195	2834.522546212748	0
0	22284	2847.686138817179	1
0	22286	2848.211845085742	0
0	22300	2849.333053339733	1
0	22310	2850.211845085742	0
0	22420	2865.862551390761	1
0	22433	2867.714550751292	2
0	22434	2867.862551390761	1
0	22447	2868.007219873413	2
0	22458	2869.862551390761	1
0	22473	2871.862551390761	0
0	22585	2884.427604269113	1
0	22595	2884.80303590295	0
0	22882	2915.389246364384	1
0	22895	2917.15865005795	2
0	22896	2917.389246364384	1
0	22903	2917.55074675293	2
0	22915	2919.389246364384	1
0	22927	2921.389246364384	0
0	22942	2922.992213429892	1
0	22943	2923.389246364384	0
0	22949	2923.973403008688	1
0	22962	2925.389246364384	0
0	23038	2937.372938535423	1
0	23045	2938.188780283449	0
0	23173	2952.696353431827	1
0	23183	2954.075806505419	2
0	23193	2954.696353431827	1
0	23199	2955.725742476954	2
0	23210	2956.696353431827	1
0	23216	2958.696353431827	0
0	23222	2958.779543873889	1
0	23227	2958.862611412558	2
0	23233	2959.702250627417	3
0	23239	2960.696353431827	2
0	23256	2962.696353431827	1
0	23274	2964.023909143924	2
0	23278	2964.696353431827	1
0	23290	2966.696353431827	0
0	23315	2969.998326168775	1
0	23320	2970.862440804674	0
0	23329	2971.529088810283	1
0	23334	2972.862440804674	0
0	23340	2973.018228229575	1
0	23350	2974.862440804674	0
0	23375	2976.851619880433	1
0	23377	2976.862440804674	0
0	23384	2977.402266660348	1
0	23404	2978.862440804674	0
0	23414	2979.689470267583	1
0	23426	2980.862440804674	0
0	23450	2982.812661518935	1
0	23451	2982.862440804674	0
0	23515	2987.915232395643	1
0	23516	2988.375133110967	0
0	23569	2992.227723780023	1
0	23570	2992.227723780023	2
0	23578	2993.109667797149	3
0	23583	2993.779046202381	2
0	23591	2994.094453106206	3
0	23604	2995.779046202381	2
0	23613	2997.115250328668	3
0	23621	2997.779046202381	2
0	23633	2999.779046202381	1
0	23652	3001.528367980446	2
0	23660	3001.779046202381	1
0	23667	3002.668472279867	2
0	23675	3003.350164113218	3
0	23679	3003.779046202381	2
0	23685	3004.115932949072	3
0	23701	3005.779046202381	2
0	23708	3005.850757131431	3
0	23718	3007.779046202381	2
0	23742	3009.779046202381	1
0	23759	3011.779046202381	0
0	23771	3013.427826899974	1
0	23772	3013.427826899974	2
0	23776	3013.779046202381	1
0	23790	3015.779046202381	0
0	23796	3016.114929720687	1
0	23797	3016.114929720687	2
0	23812	3017.779046202381	1
0	23826	3019.779046202381	0
0	23838	3020.807738776731	1
0	23843	3021.656486509039	2
0	23845	3021.779046202381	1
0	23859	3023.779046202381	0
0	23866	3024.537095787094	1
0	23870	3024.680573895764	2
0	23878	3025.779046202381	1
0	23892	3027.779046202381	0
0	24101	3056.184078776721	1
0	24106	3056.446708503903	2
0	24108	3056.474908652984	1
0	24125	3058.474908652984	0
0	24152	3060.688796042501	1
0	24159	3062.688796042501	0
0	24172	3064.769473955357	1
0	24173	3066.769473955357	0
0	24180	3067.018056825871	1
0	24185	3067.236047525787	2
0	24186	3068.769473955357	1
0	24197	3070.769473955357	0
0	24237	3073.741634409614	1
0	24241	3073.757049576841	2
0	24243	3074.958440942171	1
0	24252	3075.459711225507	2
0	24262	3076.958440942171	1
0	24274	3078.958440942171	0
0	24318	3082.629497314251	1
0	24319	3082.629497314251	2
0	24324	3082.814942287231	3
0	24328	3082.879007365002	4
0	24341	3083.563687438986	5
0	24343	3084.207011273211	4
0	24357	3086.207011273211	3
0	24370	3087.679071925284	4
0	24371	3088.207011273211	3
0	24403	3090.207011273211	2
0	24420	3092.207011273211	1
0	24432	3093.26454202359	2
0	24437	3094.207011273211	1
0	24459	3096.207011273211	0
0	24579	3110.429986789868	1
0	24589	3111.430246030491	0
0	24673	3118.918313950946	1
0	24678	3119.050773091924	2
0	24682	3119.336064125497	1
0	24707	3121.336064125497	0
0	25167	3181.558552381951	1
0	25179	3183.558552381951	0
0	25185	3183.721655063445	1
0	25186	3183.721655063445	2
0	25191	3184.844337429306	3
0	25198	3185.558552381951	2
0	25208	3187.145962526588	3
0	25209	3187.558552381951	2
0	25225	3189.558552381951	1
0	25239	3191.558552381951	0
0	25251	3193.407039429538	1
0	25253	3193.558552381951	0
0	25332	3208.773734182894	1
0	25341	3210.773734182894	0
0	25354	3211.251699960718	1