version 3
run MMc-8-20221127-11:38:40-7588
attr configname MMc
attr datetime 20221127-11:38:40
attr datetimef 20221127-113840
attr experiment MMc
attr inifile omnetpp.ini
attr iterationvars "$mean=uniform(0.5s, 1.5s), $dev=0.5*(uniform(0.5s, 1.5s)), $time=1.0, $num=5, $0=53542, $1=75335, $2=34542"
attr iterationvarsd mean=uniform(0.5s,_1.5s)/dev=0.5#2a(uniform(0.5s,_1.5s))/time=1.0/num=5/53542/75335/34542
attr iterationvarsf mean=uniform(0.5s,_1.5s),dev=0.5#2a(uniform(0.5s,_1.5s)),time=1.0,num=5,53542,75335,34542-
attr measurement "$mean=uniform(0.5s, 1.5s), $dev=0.5*(uniform(0.5s, 1.5s)), $time=1.0, $num=5, $0=53542, $1=75335, $2=34542"
attr network MMc
attr processid 7588
attr repetition 0
attr replication #0
attr resultdir results
attr runnumber 8
attr seedset 8
itervar dev "0.5*(uniform(0.5s, 1.5s))"
itervar mean "uniform(0.5s, 1.5s)"
itervar num 5
itervar time 1.0
config description "MMc module"
config network MMc
config MMc.source.interArrivalTime "truncnormal(uniform(0.5s, 1.5s), 0.5*(uniform(0.5s, 1.5s)))"
config MMc.mmc.serviceTime 1.0s
config MMc.mmc.c 5
config MMc.mmc.capacity 10000
config record-eventlog false
config **.scalar-recording true
config **.vector-recording true
config repeat 4
config seed-1-mt 53542
config seed-2-mt 75335
config seed-3-mt 34542
config output-vector-file MMc-5-1.0-results/0.vec
config output-scalar-file MMc-5-1.0-results/0.sca

vector 0 MMc.mmc queueLength:vector ETV
attr interpolationmode none
attr recordingmode vector
attr title "queue length"
vector 1 MMc.mmc util:vector ETV
attr interpolationmode none
attr recordingmode vector
attr title resources
0	0	0	0
0	72	21.861495428424	1
0	73	21.986124437149	0
0	79	22.634205408966	1
0	80	22.79887648796	0
0	93	23.462318184652	1
0	94	23.634205408966	0
0	205	37.330517683642	1
0	206	37.35916908674	0
0	303	50.849368452313	1
0	304	50.855269864824	0
0	401	64.583045388586	1
0	402	64.865092677105	0
0	422	67.054224357101	1
0	423	67.412870786133	0
0	520	80.547082547157	1
0	521	80.83902864866	0
0	674	103.437990814189	1
0	675	103.894354581442	0
0	681	103.99721100943	1
0	682	104.328226841434	0
0	961	145.90626824857	1
0	962	146.606277082905	0
0	1374	208.930157114124	1
0	1376	209.084543745313	2
0	1377	209.084543745313	3
0	1378	209.345086538726	2
0	1379	209.345086538726	1
0	1382	209.915586106536	0
0	1654	251.186846408029	1
0	1655	251.432863025484	0
0	1850	279.489753807433	1
0	1851	279.609105953646	0
0	2214	338.684440008617	1
0	2215	338.730097196718	0
0	2249	342.48973274886	1
0	2250	342.756694001743	0
0	2368	361.156341806613	1
0	2369	361.413697108508	0
0	2823	431.048163692272	1
0	2824	431.132024905263	0
0	2830	431.33411616208	1
0	2831	431.659424289833	0
0	2858	434.43158255298	1
0	2859	434.975345357896	0
0	3082	475.976152469908	1
0	3083	476.147792912091	0
0	3187	492.78532525901	1
0	3188	492.902773808685	0
0	3215	496.090083946781	1
0	3216	496.373646265641	0
0	3355	518.481913751849	1
0	3356	518.634636933468	0
0	3509	542.680993621986	1
0	3510	542.729251827329	0
0	3642	562.620076759706	1
0	3643	562.633644144766	0
0	3649	562.990376974599	1
0	3650	563.521845180877	0
0	3789	581.963234974888	1
0	3790	581.97438694414	0
0	3796	582.251679857448	1
0	3797	582.596338267488	0
0	3936	603.44515685327	1
0	3937	603.594979451297	0
0	4251	656.346369695913	1
0	4252	656.861236671065	0
0	4293	660.997568531501	1
0	4294	661.081888629003	0
0	4314	663.033412220085	1
0	4315	663.226164439241	0
0	4321	663.428706051961	1
0	4322	663.738486327439	0
0	4419	677.704244549558	1
0	4420	677.844835821575	0
0	4468	686.351397110804	1
0	4469	686.351792583965	0
0	4559	697.5209863172	1
0	4560	697.798282516147	0
0	4825	735.88438532844	1
0	4826	736.023485191881	0
0	4832	736.28056610689	1
0	4833	736.580660361975	0
0	5245	803.914542686978	1
0	5246	804.292725501973	0
0	5434	834.263328443721	1
0	5435	834.656207860285	0
0	5441	834.862811724706	1
0	5442	834.863250568285	0
0	5847	897.527018749231	1
0	5848	897.701654546301	0
0	5875	900.057440648509	1
0	5876	900.964758871592	0
0	5945	908.828719263967	1
0	5946	909.335131315699	0
0	6071	929.388816421108	1
0	6072	929.544254573075	0
0	6120	935.054296405222	1
0	6121	935.509255816857	0
0	6169	943.147781190008	1
0	6170	943.249735480947	0
0	6302	963.462543316999	1
0	6303	963.478479513717	0
0	6575	1007.090713371863	1
0	6576	1007.414657886938	0
0	6610	1011.436549208273	1
0	6611	1011.857469474582	0
0	6750	1028.786813821662	1
0	6751	1029.307303874293	0
0	6883	1049.054094692898	1
0	6884	1049.116657797638	0
0	6953	1059.299571736776	1
0	6954	1059.691994963604	0
0	7303	1109.89671877857	1
0	7304	1110.142826889237	0
0	7639	1158.628897112143	1
0	7641	1159.213220380082	2
0	7642	1159.213220380082	3
0	7643	1159.31738978721	2
0	7644	1159.31738978721	1
0	7647	1159.335244924679	0
0	7657	1160.275345728325	1
0	7658	1160.275345728325	2
0	7659	1160.31738978721	1
0	7660	1160.31738978721	0
0	7730	1169.682062845838	1
0	7731	1169.725984612672	0
0	7737	1170.020071522622	1
0	7738	1170.432305880523	0
0	8059	1219.901485096753	1
0	8060	1220.135170846157	0
0	8269	1251.062437680962	1
0	8270	1251.092105930982	0
0	8276	1251.478607181408	1
0	8277	1252.027323508016	0
0	8374	1265.168410578706	1
0	8375	1265.223487852135	0
0	8570	1296.227318230787	1
0	8571	1296.298573835534	0
0	9004	1363.362229421433	1
0	9005	1363.65371606471	0
0	9011	1364.250560107741	1
0	9012	1364.337874138236	0
0	9032	1365.963516915214	1
0	9033	1366.262182318213	0
0	9312	1410.639326825745	1
0	9314	1410.674094017104	2
0	9315	1410.674094017104	3
0	9317	1410.853313632469	4
0	9318	1410.853313632469	5
0	9319	1411.158030495354	4
0	9320	1411.158030495354	3
0	9324	1411.314996474093	4
0	9325	1411.314996474093	5
0	9326	1411.505531771498	4
0	9327	1411.505531771498	3
0	9330	1411.639326825745	2
0	9332	1412.158030495354	1
0	9333	1412.158030495354	0
0	9389	1420.471788100791	1
0	9390	1420.643396701519	0
0	9431	1425.998345025318	1
0	9432	1426.036135983165	0
0	9606	1454.91424951548	1
0	9607	1454.989740017146	0
0	9655	1459.843296940535	1
0	9656	1460.281858193733	0
0	9830	1485.028092969118	1
0	9831	1485.066080672879	0
0	9837	1485.745803419586	1
0	9838	1486.020938589331	0
0	10054	1523.660236532401	1
0	10055	1524.032191002612	0
0	10075	1525.827760487943	1
0	10076	1526.102615338963	0
0	10159	1539.055336108093	1
0	10161	1539.400384458412	2
0	10162	1539.400384458412	3
0	10163	1539.696767452561	2
0	10164	1539.696767452561	1
0	10167	1539.840576181248	0
0	10173	1540.024235888235	1
0	10174	1540.055336108093	0
0	10271	1552.770133201907	1
0	10272	1552.953326499599	0
0	10278	1553.533359475956	1
0	10279	1553.626174292579	0
0	10425	1576.004767975601	1
0	10426	1576.072287514815	0
0	10439	1576.778693967238	1
0	10440	1577.004767975601	0
0	10502	1587.020021749696	1
0	10503	1587.172758938281	0
0	10768	1627.65386669632	1
0	10769	1627.999832856412	0
0	10824	1636.200683462236	1
0	10825	1636.391551675533	0
0	11517	1757.766620464323	1
0	11518	1757.778796531409	0
0	11531	1758.356674997356	1
0	11532	1758.766620464323	0
0	11748	1789.24412356154	1
0	11749	1789.893962596668	0
0	12126	1852.630507709276	1
0	12127	1852.723488079707	0
0	12154	1856.364474187481	1
0	12155	1856.385431227363	0
0	12308	1876.720765072856	1
0	12309	1876.850916623299	0
0	12315	1877.399879287077	1
0	12316	1877.584986652307	0
0	12483	1902.674991086769	1
0	12484	1902.738984210598	0
0	12518	1905.932404649854	1
0	12519	1906.6549162281	0
0	12623	1921.95313734786	1
0	12624	1922.137697575113	0
0	12630	1922.177355088272	1
0	12631	1922.580993659363	0
0	12651	1923.923279920101	1
0	12652	1924.402906413535	0
0	12798	1946.738433758454	1
0	12799	1946.74266489719	0
0	12861	1956.49819854511	1
0	12862	1956.686195844078	0
0	12868	1957.155519427259	1
0	12869	1957.157525646338	0
0	13358	2030.837108920817	1
0	13359	2030.846624232694	0
0	13421	2040.123746315083	1
0	13422	2040.15867344355	0
0	13666	2080.600455434564	1
0	13667	2080.814831401219	0
0	13750	2091.43893123765	1
0	13751	2091.798110411554	0
0	13757	2091.852209254754	1
0	13758	2092.124450215183	0
0	14373	2188.848906998859	1
0	14374	2188.9659423059	0
0	14380	2189.458561462706	1
0	14382	2189.494403330878	2
0	14383	2189.494403330878	3
0	14384	2189.829879462719	2
0	14385	2189.829879462719	1
0	14388	2189.848906998859	0
0	14394	2189.993631775962	1
0	14395	2190.458561462706	0
0	14583	2214.700392875893	1
0	14585	2215.240424508711	2
0	14586	2215.240424508711	3
0	14587	2215.307350954838	2
0	14588	2215.307350954838	1
0	14591	2215.599056071076	0
0	14919	2269.492422964367	1
0	14920	2269.763949217214	0
0	15024	2287.684562945079	1
0	15025	2287.736207830628	0
0	15045	2289.550341402323	1
0	15046	2289.674528886181	0
0	15654	2387.417383536763	1
0	15655	2387.442362460502	0
0	15661	2388.2533974438	1
0	15662	2388.259044146173	0
0	15724	2397.641338308372	1
0	15725	2397.70083152215	0
0	15906	2427.568918013283	1
0	15907	2427.675968351789	0
0	15990	2437.209830102645	1
0	15991	2437.814805168335	0
0	16018	2440.095201665812	1
0	16019	2440.391789783199	0
0	16354	2489.409070444343	1
0	16355	2489.461123181494	0
0	16452	2504.488066999438	1
0	16453	2504.67100321223	0
0	16459	2505.348316459382	1
0	16460	2505.424987514395	0
0	16529	2515.775338437193	1
0	16530	2516.292913890643	0
0	16536	2516.386128628327	1
0	16537	2516.723314716805	0
0	16557	2518.360861056726	1
0	16558	2518.363617926967	0
0	16564	2518.856474164912	1
0	16565	2518.943702967145	0
0	16662	2532.061512182557	1
0	16663	2532.100262700402	0
0	16774	2550.059730781113	1
0	16775	2550.376567827272	0
0	16816	2556.724468717839	1
0	16817	2556.788694961589	0
0	16823	2557.149571078111	1
0	16824	2557.272029614197	0
0	16879	2564.765812474477	1
0	16880	2564.928998690823	0
0	16886	2565.380207058223	1
0	16887	2565.48077026932	0
0	16893	2565.736296609679	1
0	16894	2565.765812474477	0
0	17152	2605.726583343403	1
0	17153	2606.252656626172	0
0	17201	2612.509662405689	1
0	17202	2612.627169372979	0
0	17768	2700.077412663571	1
0	17769	2700.304434431149	0
0	17775	2700.746525633863	1
0	17776	2700.904496512465	0
0	18013	2738.819959547312	1
0	18014	2738.935041821681	0
0	18027	2739.670287211786	1
0	18028	2739.819959547312	0
0	18195	2766.512358569249	1
0	18196	2766.579083346742	0
0	18265	2778.325711207511	1
0	18266	2778.426158712465	0
0	18496	2811.915292246695	1
0	18497	2812.166971559449	0
0	18608	2829.390544478244	1
0	18609	2829.626224569987	0
0	18615	2830.280767273591	1
0	18616	2830.346694037411	0
0	18664	2835.397468094214	1
0	18665	2835.578464627311	0
0	18916	2877.110427032522	1
0	18917	2877.234848128253	0
0	19105	2906.966097621957	1
0	19106	2907.469027436069	0
0	19112	2907.748297604887	1
0	19113	2907.803006516711	0
0	19119	2907.965299223472	1
0	19120	2907.966097621957	0
0	19123	2908.455696982492	1
0	19124	2908.455696982492	2
0	19125	2908.469027436069	1
0	19127	2908.748297604887	0
0	19189	2917.686065921256	1
0	19190	2917.799987071398	0
0	19224	2922.197064999029	1
0	19225	2922.224022136619	0
0	19371	2944.334994142499	1
0	19372	2944.499360497242	0
0	19378	2944.796482610373	1
0	19379	2945.220661178709	0
0	19406	2948.39676449563	1
0	19407	2948.771285981146	0
0	19483	2957.966145584185	1
0	19484	2958.063347588918	0
0	19658	2986.796389377333	1
0	19659	2987.344527420548	0
0	19665	2987.424662750319	1
0	19666	2987.606107483143	0
0	19917	3023.435286470329	1
0	19918	3023.794592414435	0
0	19924	3023.970178641644	1
0	19925	3024.246083881921	0
0	20274	3079.619840927604	1
0	20275	3079.863377849239	0
0	20281	3079.985291793456	1
0	20282	3080.328381292147	0
0	20596	3126.626733270966	1
0	20597	3127.039935631037	0
0	20806	3158.193628856428	1
0	20807	3158.236889696319	0
0	20841	3161.251799273456	1
0	20842	3162.065655911592	0
0	21058	3187.709104179641	1
0	21060	3187.816651858381	2
0	21061	3187.816651858381	3
0	21062	3188.113605095586	2
0	21063	3188.113605095586	1
0	21066	3188.494044485054	0
0	21121	3196.429237031222	1
0	21122	3196.627560696347	0
0	21352	3234.114951956577	1
0	21353	3234.128224700699	0
0	21359	3234.459980653142	1
0	21360	3234.626559719193	0
0	21366	3235.050157128595	1
0	21367	3235.114951956577	0
0	21562	3263.959719728993	1
0	21563	3264.035842798133	0
0	21765	3294.1840184656	1
0	21766	3294.622987763691	0
0	21779	3295.069313505829	1
0	21780	3295.1840184656	0
0	21842	3303.679668763044	1
0	21843	3303.695209582185	0
0	21996	3326.913272960051	1
0	21997	3327.212986298478	0
0	22164	3354.616723800485	1
0	22165	3354.63781066778	0
0	22171	3354.651296214393	1
0	22172	3355.101706163976	0
0	22178	3355.223768059885	1
0	22179	3355.616723800485	0
0	22416	3392.760475176677	1
0	22417	3392.868675532505	0
0	22423	3393.131168497609	1
0	22425	3393.428610315151	2
0	22426	3393.428610315151	3
0	22427	3393.528072265746	2
0	22428	3393.528072265746	1
0	22431	3393.760475176677	0
0	22605	3417.141419829576	1
0	22606	3417.988041408817	0
0	22668	3423.984373923481	1
0	22669	3424.52170873978	0
0	22689	3426.302808439539	1
0	22690	3426.418510127525	0
0	22696	3427.209540483113	1
0	22697	3427.238261773594	0
0	22710	3427.692761737528	1
0	22711	3428.209540483113	0
0	23067	3486.306786785672	1
0	23068	3486.351304210392	0
0	23319	3523.507704506545	1
0	23320	3523.555908049055	0
0	23347	3525.803503961659	1
0	23348	3526.548579847394	0
0	23389	3531.099312094811	1
0	23390	3531.119117495666	0
0	23417	3533.609707623119	1
0	23418	3533.861884321044	0
0	23438	3535.855115071584	1
0	23439	3536.10298381449	0
0	23473	3540.057682796853	1
0	23474	3540.497900094474	0
0	23494	3541.871678521895	1
0	23495	3541.877170368721	0
0	23501	3542.502527218953	1
0	23502	3542.736302371724	0
0	23585	3555.267929747649	1
0	23586	3555.357879319019	0
1	0	0	0
1	4	11	0
1	5	11	0
1	11	12.4179975783	0
1	12	12.4179975783	0
1	21	14.006117595291	0
1	22	14.006117595291	0
1	28	14.685612523861	0
1	29	14.685612523861	0
1	32	15.091919437312	0
1	33	15.091919437312	0
1	42	16.81518145576	0
1	43	16.81518145576	0
1	46	17.749159394393	0
1	47	17.749159394393	0
1	56	19.3063866262	0
1	57	19.3063866262	0
1	60	20.260719429715	0
1	61	20.260719429715	0
1	73	21.986124437149	1
1	74	21.986124437149	1
1	80	22.79887648796	1
1	81	22.79887648796	1
1	84	22.861495428424	0
1	89	22.986124437149	1
1	94	23.634205408966	1
1	96	23.79887648796	1
1	98	23.876025209043	0
1	99	23.876025209043	0
1	102	24.462318184652	0
1	104	24.634205408966	0
1	112	25.909821568494	0
1	113	25.909821568494	0
1	119	26.418711152335	0
1	120	26.418711152335	0
1	123	27.40836306461	0
1	124	27.40836306461	0
1	130	28.487869694272	0
1	131	28.487869694272	0
1	137	30.222170925002	0
1	138	30.222170925002	0
1	147	31.250681761104	0
1	148	31.250681761104	0
1	154	32.134952329734	0
1	155	32.134952329734	0
1	161	32.910577635631	0
1	162	32.910577635631	0
1	165	33.217519139158	0
1	166	33.217519139158	0
1	175	34.34664825356	0
1	176	34.34664825356	0
1	179	35.014385939486	0
1	180	35.014385939486	0
1	189	36.285855757753	0
1	190	36.285855757753	0
1	196	36.794302651992	0
1	197	36.794302651992	0
1	206	37.35916908674	1
1	207	37.35916908674	1
1	210	37.931634803945	0
1	211	37.931634803945	0
1	217	38.330517683642	0
1	219	38.35916908674	0
1	221	38.934379510045	0
1	222	38.934379510045	0
1	228	39.954142623003	0
1	229	39.954142623003	0
1	235	41.296329361107	0
1	236	41.296329361107	0
1	245	43.381356828362	0
1	246	43.381356828362	0
1	249	43.553401732476	0
1	250	43.553401732476	0
1	256	44.959829688463	0
1	257	44.959829688463	0
1	263	46.415626468144	0
1	264	46.415626468144	0
1	273	47.493352389454	0
1	274	47.493352389454	0
1	277	48.385319165856	0
1	278	48.385319165856	0
1	287	49.401273938825	0
1	288	49.401273938825	0
1	294	50.035691439864	0
1	295	50.035691439864	0
1	304	50.855269864824	1
1	305	50.855269864824	1
1	308	51.735383981029	0
1	309	51.735383981029	0
1	312	51.849368452313	0
1	314	51.855269864824	0
1	319	53.500123612469	0
1	320	53.500123612469	0
1	329	54.901857029627	0
1	330	54.901857029627	0
1	333	55.599051948626	0
1	334	55.599051948626	0
1	340	57.197632311193	0
1	341	57.197632311193	0
1	350	59.786411459107	0
1	351	59.786411459107	0
1	354	59.897397772113	0
1	355	59.897397772113	0
1	364	60.983625579424	0
1	365	60.983625579424	0
1	371	61.548574859748	0
1	372	61.548574859748	0
1	378	62.537596369259	0
1	379	62.537596369259	0
1	385	63.51670040718	0
1	386	63.51670040718	0
1	389	63.83031758314	0
1	390	63.83031758314	0
1	402	64.865092677105	1
1	403	64.865092677105	1
1	406	65.284471779243	0
1	407	65.284471779243	0
1	410	65.583045388586	0
1	412	65.865092677105	0
1	423	67.412870786133	1
1	424	67.412870786133	1
1	427	67.496083866248	0
1	428	67.496083866248	0
1	431	68.054224357101	0
1	433	68.412870786133	0
1	441	69.474032412268	0
1	442	69.474032412268	0
1	448	70.307338710832	0
1	449	70.307338710832	0
1	452	71.086562494068	0
1	453	71.086562494068	0
1	462	72.283987236033	0
1	463	72.283987236033	0
1	466	73.060012740844	0
1	467	73.060012740844	0
1	476	74.434638408872	0
1	477	74.434638408872	0
1	480	75.249728478891	0
1	481	75.249728478891	0
1	487	76.88346967028	0
1	488	76.88346967028	0
1	494	78.304169962256	0
1	495	78.304169962256	0
1	504	79.433744306402	0
1	505	79.433744306402	0
1	508	79.728393882029	0
1	509	79.728393882029	0
1	521	80.83902864866	1
1	522	80.83902864866	1
1	525	81.196372566693	0
1	526	81.196372566693	0
1	529	81.547082547157	0
1	534	81.83902864866	0
1	536	82.743439378304	0
1	537	82.743439378304	0
1	546	84.077136768069	0
1	547	84.077136768069	0
1	550	84.349027213255	0
1	551	84.349027213255	0
1	560	85.679088514805	0
1	561	85.679088514805	0
1	567	86.310766885386	0
1	568	86.310766885386	0
1	571	87.027617649048	0
1	572	87.027617649048	0
1	578	88.536655248997	0
1	579	88.536655248997	0
1	588	90.848156290882	0
1	589	90.848156290882	0
1	592	91.38035798062	0
1	593	91.38035798062	0
1	599	92.701547887471	0
1	600	92.701547887471	0
1	606	94.125765977731	0
1	607	94.125765977731	0
1	613	96.550840422946	0
1	614	96.550840422946	0
1	623	97.859559950445	0
1	624	97.859559950445	0
1	630	98.550737410619	0
1	631	98.550737410619	0
1	637	99.378775406644	0
1	638	99.378775406644	0
1	641	100.172893160131	0
1	642	100.172893160131	0
1	651	101.285897134704	0
1	652	101.285897134704	0
1	655	101.832906547518	0
1	656	101.832906547518	0
1	662	102.892647180953	0
1	663	102.892647180953	0
1	675	103.894354581442	1
1	676	103.894354581442	1
1	682	104.328226841434	1
1	683	104.328226841434	1
1	686	104.437990814189	0
1	691	104.894354581442	1
1	693	104.99721100943	0
1	695	105.328226841434	0
1	700	105.834101205217	0
1	701	105.834101205217	0
1	707	106.712642792066	0
1	708	106.712642792066	0
1	714	107.376796754138	0
1	715	107.376796754138	0
1	721	107.814934732436	0
1	722	107.814934732436	0
1	725	108.404799392231	0
1	726	108.404799392231	0
1	732	110.367599068289	0
1	733	110.367599068289	0
1	739	112.035490124162	0
1	740	112.035490124162	0
1	746	113.257755866315	0
1	747	113.257755866315	0
1	753	114.412064300857	0
1	754	114.412064300857	0
1	763	116.986387097365	0
1	764	116.986387097365	0
1	767	117.701992400577	0
1	768	117.701992400577	0
1	774	118.768466191156	0
1	775	118.768466191156	0
1	784	120.394326406198	0
1	785	120.394326406198	0
1	791	120.722529407153	0
1	792	120.722529407153	0
1	795	121.619949224911	0
1	796	121.619949224911	0
1	805	123.302849634865	0
1	806	123.302849634865	0
1	809	123.345586537826	0
1	810	123.345586537826	0
1	819	125.249932944901	0
1	820	125.249932944901	0
1	826	125.308699324082	0
1	827	125.308699324082	0
1	833	126.267831491191	0
1	834	126.267831491191	0
1	837	126.605499369662	0
1	838	126.605499369662	0
1	847	128.546132585331	0
1	848	128.546132585331	0
1	851	129.102471372105	0
1	852	129.102471372105	0
1	858	130.141475569119	0
1	859	130.141475569119	0
1	868	131.580159548672	0
1	869	131.580159548672	0
1	872	132.06273667942	0
1	873	132.06273667942	0
1	879	133.480765272421	0
1	880	133.480765272421	0
1	886	135.139349505011	0
1	887	135.139349505011	0
1	893	136.415208467399	0
1	894	136.415208467399	0
1	900	137.624762655634	0
1	901	137.624762655634	0
1	907	139.641880903138	0
1	908	139.641880903138	0
1	914	140.752419605104	0
1	915	140.752419605104	0
1	924	142.439452844657	0
1	925	142.439452844657	0
1	931	142.952350867707	0
1	932	142.952350867707	0
1	935	143.737724395042	0
1	936	143.737724395042	0
1	945	144.900427413182	0
1	946	144.900427413182	0
1	949	145.335626011526	0
1	950	145.335626011526	0
1	962	146.606277082905	1
1	963	146.606277082905	1
1	966	146.620149860941	0
1	967	146.620149860941	0
1	973	146.90626824857	0
1	978	147.606277082905	1
1	980	147.829346056435	0
1	981	147.829346056435	0
1	987	148.403809041726	0
1	988	148.403809041726	0
1	991	149.345894968286	0
1	992	149.345894968286	0
1	998	152.753581411879	0
1	999	152.753581411879	0
1	1008	153.908759627979	0
1	1009	153.908759627979	0
1	1015	154.811019225094	0
1	1016	154.811019225094	0
1	1022	155.649130672607	0
1	1023	155.649130672607	0
1	1029	156.507399469749	0
1	1030	156.507399469749	0
1	1033	157.425145950989	0
1	1034	157.425145950989	0
1	1043	158.506104469529	0
1	1044	158.506104469529	0
1	1047	159.460841074443	0
1	1048	159.460841074443	0
1	1054	160.833593036805	0
1	1055	160.833593036805	0
1	1061	162.497796576344	0
1	1062	162.497796576344	0
1	1068	163.794323308155	0
1	1069	163.794323308155	0
1	1078	164.940189169166	0
1	1079	164.940189169166	0
1	1085	165.7511486829	0
1	1086	165.7511486829	0
1	1092	166.534006543178	0
1	1093	166.534006543178	0
1	1099	166.786584692583	0
1	1100	166.786584692583	0
1	1103	167.735194945969	0
1	1104	167.735194945969	0
1	1113	169.129128660574	0
1	1114	169.129128660574	0
1	1120	169.770889538457	0
1	1121	169.770889538457	0
1	1127	170.732832727827	0
1	1128	170.732832727827	0
1	1131	171.447424792273	0
1	1132	171.447424792273	0
1	1138	172.893454881528	0
1	1139	172.893454881528	0
1	1145	174.417389637284	0
1	1146	174.417389637284	0
1	1152	175.480925302272	0
1	1153	175.480925302272	0
1	1162	177.355221262723	0
1	1163	177.355221262723	0
1	1166	178.168651790167	0
1	1167	178.168651790167	0
1	1173	179.622126073053	0
1	1174	179.622126073053	0
1	1180	181.417468884132	0
1	1181	181.417468884132	0
1	1190	182.819717984869	0
1	1191	182.819717984869	0
1	1194	183.736331800116	0
1	1195	183.736331800116	0
1	1201	184.897133747465	0
1	1202	184.897133747465	0
1	1211	186.776326288446	0
1	1212	186.776326288446	0
1	1215	186.992053420981	0
1	1216	186.992053420981	0
1	1222	188.734676866858	0
1	1223	188.734676866858	0
1	1229	190.667743692766	0
1	1230	190.667743692766	0
1	1239	192.631851449417	0
1	1240	192.631851449417	0
1	1243	193.580207679327	0
1	1244	193.580207679327	0
1	1253	194.686521042824	0
1	1254	194.686521042824	0
1	1257	194.791118045165	0
1	1258	194.791118045165	0
1	1267	195.817321919489	0
1	1268	195.817321919489	0
1	1271	196.086261423494	0
1	1272	196.086261423494	0
1	1281	197.576571710629	0
1	1282	197.576571710629	0
1	1285	198.461457293946	0
1	1286	198.461457293946	0
1	1295	199.630631520568	0
1	1296	199.630631520568	0
1	1302	200.116978047612	0
1	1303	200.116978047612	0
1	1309	201.027159181103	0
1	1310	201.027159181103	0
1	1313	201.683749925987	0
1	1314	201.683749925987	0
1	1323	203.420253823523	0
1	1324	203.420253823523	0
1	1330	203.65300453816	0
1	1331	203.65300453816	0
1	1337	204.549661956279	0
1	1338	204.549661956279	0
1	1341	205.316475679343	0
1	1342	205.316475679343	0
1	1348	206.51316647152	0
1	1349	206.51316647152	0
1	1355	207.567553123004	0
1	1356	207.567553123004	0
1	1365	208.568401593715	0
1	1366	208.568401593715	0
1	1378	209.345086538726	1
1	1379	209.345086538726	1
1	1382	209.915586106536	1
1	1383	209.915586106536	1
1	1386	209.930157114124	0
1	1388	210.345086538726	0
1	1389	210.345086538726	0
1	1392	210.915586106536	0
1	1400	212.384891869974	0
1	1401	212.384891869974	0
1	1404	213.380336932838	0
1	1405	213.380336932838	0
1	1414	214.550587099322	0
1	1415	214.550587099322	0
1	1421	215.349560071893	0
1	1422	215.349560071893	0
1	1425	216.023028832375	0
1	1426	216.023028832375	0
1	1435	217.137798829613	0
1	1436	217.137798829613	0
1	1439	217.455919720114	0
1	1440	217.455919720114	0
1	1446	219.366133866967	0
1	1447	219.366133866967	0
1	1456	221.062417962667	0
1	1457	221.062417962667	0
1	1460	221.876140699618	0
1	1461	221.876140699618	0
1	1470	222.882254374457	0
1	1471	222.882254374457	0
1	1474	223.474893700526	0
1	1475	223.474893700526	0
1	1484	224.538044570849	0
1	1485	224.538044570849	0
1	1488	225.364318900332	0
1	1489	225.364318900332	0
1	1495	226.527509198939	0
1	1496	226.527509198939	0
1	1505	227.790000172864	0
1	1506	227.790000172864	0
1	1512	228.75082007085	0
1	1513	228.75082007085	0
1	1519	229.417624495176	0
1	1520	229.417624495176	0
1	1523	229.976996921356	0
1	1524	229.976996921356	0
1	1530	231.859150056361	0
1	1531	231.859150056361	0
1	1537	233.261093900929	0
1	1538	233.261093900929	0
1	1544	234.311491200308	0
1	1545	234.311491200308	0
1	1551	235.517494828545	0
1	1552	235.517494828545	0
1	1558	236.701840245421	0
1	1559	236.701840245421	0
1	1568	239.008862169675	0
1	1569	239.008862169675	0
1	1572	239.594468991193	0
1	1573	239.594468991193	0
1	1582	240.669031202834	0
1	1583	240.669031202834	0
1	1589	241.250072815605	0
1	1590	241.250072815605	0
1	1593	241.782695783309	0
1	1594	241.782695783309	0
1	1603	243.880043903776	0
1	1604	243.880043903776	0
1	1607	244.868058198578	0
1	1608	244.868058198578	0
1	1614	246.116470063878	0
1	1615	246.116470063878	0
1	1621	247.439716393412	0
1	1622	247.439716393412	0
1	1628	248.454507281662	0
1	1629	248.454507281662	0
1	1638	249.707082978558	0
1	1639	249.707082978558	0
1	1642	250.170794046279	0
1	1643	250.170794046279	0
1	1655	251.432863025484	1
1	1656	251.432863025484	1
1	1659	251.606218444596	0
1	1660	251.606218444596	0
1	1663	252.186846408029	0
1	1665	252.432863025484	0
1	1670	253.846066062863	0
1	1671	253.846066062863	0
1	1680	255.113256997757	0
1	1681	255.113256997757	0
1	1684	255.529429019095	0
1	1685	255.529429019095	0
1	1691	257.107823946266	0
1	1692	257.107823946266	0
1	1698	258.378397715274	0
1	1699	258.378397715274	0
1	1708	259.646885034712	0
1	1709	259.646885034712	0
1	1712	260.167413166513	0
1	1713	260.167413166513	0
1	1722	261.219190920461	0
1	1723	261.219190920461	0
1	1726	261.732202767398	0
1	1727	261.732202767398	0
1	1736	263.138637723252	0
1	1737	263.138637723252	0
1	1740	263.715790722969	0
1	1741	263.715790722969	0
1	1747	264.876670653576	0
1	1748	264.876670653576	0
1	1754	266.121391653354	0
1	1755	266.121391653354	0
1	1764	267.345532507758	0
1	1765	267.345532507758	0
1	1768	268.320863005337	0
1	1769	268.320863005337	0
1	1778	269.901386152149	0
1	1779	269.901386152149	0
1	1782	270.637695884154	0
1	1783	270.637695884154	0
1	1792	273.405769930574	0
1	1793	273.405769930574	0
1	1796	273.847444634308	0
1	1797	273.847444634308	0
1	1806	275.3146643267	0
1	1807	275.3146643267	0
1	1813	276.274851219263	0
1	1814	276.274851219263	0
1	1820	276.617022034345	0
1	1821	276.617022034345	0
1	1827	277.462309640492	0
1	1828	277.462309640492	0
1	1834	278.428519105474	0
1	1835	278.428519105474	0
1	1841	279.068499322969	0
1	1842	279.068499322969	0
1	1851	279.609105953646	1
1	1852	279.609105953646	1
1	1855	280.192193455276	0
1	1856	280.192193455276	0
1	1862	280.489753807433	0
1	1864	280.609105953646	0
1	1866	281.326286505548	0
1	1867	281.326286505548	0
1	1873	282.703535766027	0
1	1874	282.703535766027	0
1	1880	284.351438574706	0
1	1881	284.351438574706	0
1	1887	285.618513890226	0
1	1888	285.618513890226	0
1	1894	287.686607956078	0
1	1895	287.686607956078	0
1	1904	289.138740111836	0
1	1905	289.138740111836	0
1	1908	290.136999572934	0
1	1909	290.136999572934	0
1	1915	291.873982490623	0
1	1916	291.873982490623	0
1	1925	293.127878764202	0
1	1926	293.127878764202	0
1	1929	293.438651287038	0
1	1930	293.438651287038	0
1	1939	294.453817067101	0
1	1940	294.453817067101	0
1	1943	295.028870016769	0
1	1944	295.028870016769	0
1	1950	296.117506064715	0
1	1951	296.117506064715	0
1	1960	297.182256113014	0
1	1961	297.182256113014	0
1	1964	298.173614312443	0
1	1965	298.173614312443	0
1	1974	300.035079220873	0
1	1975	300.035079220873	0
1	1978	300.634628507826	0
1	1979	300.634628507826	0
1	1985	302.219545810379	0
1	1986	302.219545810379	0
1	1992	304.187805713549	0
1	1993	304.187805713549	0
1	1999	305.818474530252	0
1	2000	305.818474530252	0
1	2006	307.471377350667	0
1	2007	307.471377350667	0
1	2016	309.347334646873	0
1	2017	309.347334646873	0
1	2020	310.058155006054	0
1	2021	310.058155006054	0
1	2030	312.081584454859	0
1	2031	312.081584454859	0
1	2034	313.006389672065	0
1	2035	313.006389672065	0
1	2044	314.596245215334	0
1	2045	314.596245215334	0
1	2048	314.669181620508	0
1	2049	314.669181620508	0
1	2055	316.299826327765	0
1	2056	316.299826327765	0
1	2062	317.967688104111	0
1	2063	317.967688104111	0
1	2072	319.802500684021	0
1	2073	319.802500684021	0
1	2079	320.517693439365	0
1	2080	320.517693439365	0
1	2086	321.110147628966	0
1	2087	321.110147628966	0
1	2093	321.88927223744	0
1	2094	321.88927223744	0
1	2100	322.400823488513	0
1	2101	322.400823488513	0
1	2107	323.132410661305	0
1	2108	323.132410661305	0
1	2111	323.58841821225	0
1	2112	323.58841821225	0
1	2118	324.995323043804	0
1	2119	324.995323043804	0
1	2125	326.508203279759	0
1	2126	326.508203279759	0
1	2135	327.739605657058	0
1	2136	327.739605657058	0
1	2139	328.133416550381	0
1	2140	328.133416550381	0
1	2146	329.202489576495	0
1	2147	329.202489576495	0
1	2153	330.528000016608	0
1	2154	330.528000016608	0
1	2163	331.720034342395	0
1	2164	331.720034342395	0
1	2170	332.51298233149	0
1	2171	332.51298233149	0
1	2177	333.172148868182	0
1	2178	333.172148868182	0
1	2181	334.012294476149	0
1	2182	334.012294476149	0
1	2188	335.190447282906	0
1	2189	335.190447282906	0
1	2198	336.755946811419	0
1	2199	336.755946811419	0
1	2202	337.467432202149	0
1	2203	337.467432202149	0
1	2215	338.730097196718	1
1	2216	338.730097196718	1
1	2219	338.809384796172	0
1	2220	338.809384796172	0
1	2226	339.684440008617	0
1	2228	339.730097196718	0
1	2233	340.305744412107	0
1	2234	340.305744412107	0
1	2237	341.212366201485	0
1	2238	341.212366201485	0
1	2250	342.756694001743	1
1	2251	342.756694001743	1
1	2254	343.054531565674	0
1	2255	343.054531565674	0
1	2258	343.48973274886	0
1	2263	343.756694001743	0
1	2268	344.67251814614	0
1	2269	344.67251814614	0
1	2275	345.392621492706	0
1	2276	345.392621492706	0
1	2279	346.187926028282	0
1	2280	346.187926028282	0
1	2289	347.711975591166	0
1	2290	347.711975591166	0
1	2296	348.605691728151	0
1	2297	348.605691728151	0
1	2300	349.548636448009	0
1	2301	349.548636448009	0
1	2307	350.763898996854	0
1	2308	350.763898996854	0
1	2317	351.797266609691	0
1	2318	351.797266609691	0