version 3
run MMc-9-20221127-11:38:40-7588
attr configname MMc
attr datetime 20221127-11:38:40
attr datetimef 20221127-113840
attr experiment MMc
attr inifile omnetpp.ini
attr iterationvars "$mean=uniform(0.5s, 1.5s), $dev=0.5*(uniform(0.5s, 1.5s)), $time=1.0, $num=5, $0=45732, $1=35463, $2=67563"
attr iterationvarsd mean=uniform(0.5s,_1.5s)/dev=0.5#2a(uniform(0.5s,_1.5s))/time=1.0/num=5/45732/35463/67563
attr iterationvarsf mean=uniform(0.5s,_1.5s),dev=0.5#2a(uniform(0.5s,_1.5s)),time=1.0,num=5,45732,35463,67563-
attr measurement "$mean=uniform(0.5s, 1.5s), $dev=0.5*(uniform(0.5s, 1.5s)), $time=1.0, $num=5, $0=45732, $1=35463, $2=67563"
attr network MMc
attr processid 7588
attr repetition 1
attr replication #1
attr resultdir results
attr runnumber 9
attr seedset 9
itervar dev "0.5*(uniform(0.5s, 1.5s))"
itervar mean "uniform(0.5s, 1.5s)"
itervar num 5
itervar time 1.0
config description "MMc module"
config network MMc
config MMc.source.interArrivalTime "truncnormal(uniform(0.5s, 1.5s), 0.5*(uniform(0.5s, 1.5s)))"
config MMc.mmc.serviceTime 1.0s
config MMc.mmc.c 5
config MMc.mmc.capacity 10000
config record-eventlog false
config **.scalar-recording true
config **.vector-recording true
config repeat 4
config seed-1-mt 45732
config seed-2-mt 35463
config seed-3-mt 67563
config output-vector-file MMc-5-1.0-results/1.vec
config output-scalar-file MMc-5-1.0-results/1.sca

vector 0 MMc.mmc queueLength:vector ETV
attr interpolationmode none
attr recordingmode vector
attr title "queue length"
vector 1 MMc.mmc util:vector ETV
attr interpolationmode none
attr recordingmode vector
attr title resources
0	0	0	0
0	9	10.940881222857	1
0	10	11	0
0	37	13.036117295646	1
0	38	13.785780408363	0
0	212	42.673242867635	1
0	213	42.870704992271	0
0	380	65.98863880374	1
0	381	66.2975485034	0
0	562	97.974267212714	1
0	563	98.200401128426	0
0	695	119.457048757536	1
0	696	119.679252561987	0
0	835	139.597408283566	1
0	836	139.693971993501	0
0	1031	168.988150173767	1
0	1033	169.422011384236	2
0	1034	169.422011384236	3
0	1035	169.756421501454	2
0	1036	169.756421501454	1
0	1039	169.913821460945	0
0	1241	200.883915380812	1
0	1242	201.486723918586	0
0	1423	229.915174838481	1
0	1424	230.097307349001	0
0	1570	254.857473043223	1
0	1571	254.891240139087	0
0	1577	255.358614393958	1
0	1578	255.381481435443	0
0	1885	306.968922304444	1
0	1886	307.053513114815	0
0	2522	402.085700016309	1
0	2523	402.281299728466	0
0	2697	432.925880372284	1
0	2698	433.236793323011	0
0	2704	433.397187203355	1
0	2705	433.739771016084	0
0	2907	463.106508264915	1
0	2908	463.220483032391	0
0	2942	466.84904217673	1
0	2943	466.967931529445	0
0	3355	530.823293927272	1
0	3356	531.215339572275	0
0	3411	539.237717717563	1
0	3412	539.684971154662	0
0	3502	552.903235298617	1
0	3503	552.97951065148	0
0	3635	568.885715846246	1
0	3636	568.909342154315	0
0	3726	582.670194645499	1
0	3727	583.17153898994	0
0	4188	649.729242449184	1
0	4189	649.901600723723	0
0	4286	664.48695364349	1
0	4287	664.493338332623	0
0	4335	670.668997259539	1
0	4336	670.755878525671	0
0	4405	681.166410951623	1
0	4406	681.317857527909	0
0	4433	683.707301563787	1
0	4435	684.007448397511	2
0	4436	684.007448397511	3
0	4437	684.321980872883	2
0	4438	684.321980872883	1
0	4441	684.533818140613	0
0	4699	720.834742006209	1
0	4700	721.011560867903	0
0	4874	749.328032461368	1
0	4875	749.545352102611	0
0	4881	750.025662891198	1
0	4882	750.290140527685	0
0	5280	813.609174643787	1
0	5281	813.772629913128	0
0	5287	814.266670065953	1
0	5288	814.379747247255	0
0	5357	824.565241742884	1
0	5358	824.715269419553	0
0	5364	825.186047017081	1
0	5365	825.287683992961	0
0	5462	838.331903301183	1
0	5463	838.336687065308	0
0	5469	838.777961072161	1
0	5470	839.208026513372	0
0	5623	860.785281213746	1
0	5624	860.910159927692	0
0	5735	876.346611534992	1
0	5736	876.562077118997	0
0	5805	884.492182446947	1
0	5806	884.532612052165	0
0	5959	906.134325024916	1
0	5961	906.426242350607	2
0	5962	906.426242350607	3
0	5963	906.719806257376	2
0	5964	906.719806257376	1
0	5967	906.971514901142	0
0	6085	923.740375267545	1
0	6086	923.74670734083	0
0	6092	924.294756532205	1
0	6094	924.373953467459	2
0	6095	924.373953467459	3
0	6097	924.420476480084	4
0	6098	924.420476480084	5
0	6099	924.510114612412	4
0	6100	924.510114612412	3
0	6103	924.740375267545	2
0	6105	924.74670734083	1
0	6108	924.973971324031	2
0	6109	924.973971324031	3
0	6111	925.205848789829	4
0	6112	925.205848789829	5
0	6113	925.294756532205	4
0	6115	925.510114612412	3
0	6116	925.510114612412	2
0	6119	925.740375267545	1
0	6121	925.74670734083	0
0	6190	934.826165545681	1
0	6191	934.974964550311	0
0	6239	941.783434302294	1
0	6240	941.868758146465	0
0	6400	965.948392504649	1
0	6401	966.629339244949	0
0	6442	971.730387070188	1
0	6443	971.831551478013	0
0	6463	974.262238379104	1
0	6464	974.441723999701	0
0	6526	982.00880546064	1
0	6527	982.151362622481	0
0	6533	982.935460941997	1
0	6534	982.967160801361	0
0	6778	1020.719548010057	1
0	6779	1021.269431633213	0
0	6785	1021.317095596152	1
0	6786	1021.704487839986	0
0	7023	1056.162186163523	1
0	7024	1056.566759615095	0
0	7233	1088.783722855322	1
0	7234	1088.857057036101	0
0	7373	1110.054759788008	1
0	7374	1110.854378393154	0
0	7380	1110.872909919869	1
0	7381	1111.025100054801	0
0	7548	1137.978893318629	1
0	7549	1138.472858168266	0
0	7555	1138.814860298488	1
0	7556	1138.884677174859	0
0	7674	1152.95923063736	1
0	7675	1153.476390096461	0
0	7681	1153.755519653272	1
0	7682	1153.853124553059	0
0	7702	1156.94867439864	1
0	7703	1157.406066034263	0
0	8024	1203.711939585277	1
0	8025	1203.778222620509	0
0	8059	1207.362298967076	1
0	8060	1207.877184968021	0
0	8248	1238.619010072871	1
0	8249	1238.787705071251	0
0	8304	1245.956842340599	1
0	8305	1246.084045121961	0
0	8451	1266.915184487831	1
0	8452	1267.263583853132	0
0	8493	1271.867969181361	1
0	8494	1271.873030046869	0
0	8500	1272.379759290617	1
0	8501	1272.380881062563	0
0	8717	1308.26894456177	1
0	8718	1308.277313379565	0
0	8766	1314.785257480001	1
0	8767	1315.175567907945	0
0	8773	1315.225312118929	1
0	8774	1315.519965646977	0
0	8780	1315.548454288699	1
0	8781	1315.785257480001	0
0	9193	1383.921160339261	1
0	9194	1384.240347432133	0
0	9403	1415.157169000761	1
0	9404	1415.212103381318	0
0	9459	1422.590251165668	1
0	9460	1422.760088848986	0
0	9963	1513.340084174318	1
0	9964	1513.674016957067	0
0	10026	1522.542010322299	1
0	10027	1523.17533248757	0
0	10096	1531.641534652273	1
0	10097	1532.211950248109	0
0	10103	1532.364718854419	1
0	10104	1532.386333908101	0
0	10264	1557.886268227023	1
0	10266	1558.055019768778	2
0	10267	1558.055019768778	3
0	10268	1558.218065453751	2
0	10269	1558.218065453751	1
0	10272	1558.555474207799	0
0	10355	1572.420275171548	1
0	10356	1572.468808322503	0
0	10362	1573.303647175648	1
0	10363	1573.323154621524	0
0	10439	1583.540711280353	1
0	10441	1583.765595901742	2
0	10442	1583.765595901742	3
0	10443	1583.928939814402	2
0	10444	1583.928939814402	1
0	10447	1584.108369232496	0
0	10642	1613.36437186321	1
0	10643	1613.559658220658	0
0	10649	1614.191692161295	1
0	10650	1614.277346590269	0
0	10712	1623.845878761608	1
0	10713	1624.430414932599	0
0	11090	1689.421173015881	1
0	11091	1689.625590339464	0
0	11510	1757.715031927773	1
0	11511	1757.846109930332	0
0	11545	1761.201444806347	1
0	11546	1761.248356424614	0
0	11692	1782.502756385803	1
0	11693	1782.509779614076	0
0	11797	1800.010777751882	1
0	11798	1800.156493999552	0
0	11944	1820.781834689788	1
0	11945	1820.902536136983	0
0	12000	1826.488573919624	1
0	12001	1826.600423173671	0
0	12042	1833.372286412319	1
0	12043	1833.446773798444	0
0	12224	1861.685279394018	1
0	12225	1862.102180801343	0
0	12280	1870.185440053895	1
0	12281	1870.622131877587	0
0	12329	1875.955345485309	1
0	12330	1876.006646790648	0
0	12462	1897.981292813224	1
0	12464	1898.147349840006	2
0	12465	1898.147349840006	3
0	12466	1898.278532925483	2
0	12467	1898.278532925483	1
0	12470	1898.960443153392	0
0	12490	1900.524117952056	1
0	12491	1900.607367813407	0
0	12497	1901.054397043518	1
0	12498	1901.151192728404	0
0	12637	1922.821283075829	1
0	12638	1923.423125044123	0
0	12686	1928.711403650967	1
0	12687	1929.373279023799	0
0	12714	1931.934762144018	1
0	12715	1932.711529173331	0
0	13022	1983.251196618995	1
0	13023	1983.355006363329	0
0	13029	1983.785236257779	1
0	13030	1983.855936406917	0
0	13036	1984.235977764374	1
0	13037	1984.251196618995	0
0	13043	1984.376476514789	1
0	13044	1984.785236257779	0
0	13288	2019.952430702883	1
0	13289	2020.708368922765	0
0	13379	2032.066546600203	1
0	13380	2032.216342283833	0
0	13484	2049.069339518353	1
0	13485	2049.171157323083	0
0	13540	2057.225613477263	1
0	13541	2057.283863831218	0
0	13582	2062.802572756018	1
0	13583	2062.877280172846	0
0	13603	2064.494717988369	1
0	13604	2065.377685968247	0
0	13638	2068.06194660646	1
0	13639	2068.401150271889	0
0	13701	2077.42869293623	1
0	13702	2077.565525106749	0
0	14058	2137.080327836484	1
0	14059	2137.189689034945	0
0	14191	2159.867558898006	1
0	14192	2159.899497510884	0
0	14415	2195.444625284357	1
0	14416	2195.501652564022	0
0	14555	2215.196472069925	1
0	14556	2215.60019891423	0
0	14674	2231.862718379833	1
0	14675	2231.938542644382	0
0	14737	2242.509949352442	1
0	14738	2242.611189900911	0
0	14835	2254.679724136164	1
0	14836	2254.854574066542	0
0	15031	2282.533893915274	1
0	15032	2283.328869721951	0
0	15290	2326.433584561889	1
0	15292	2326.453949307186	2
0	15293	2326.453949307186	3
0	15294	2326.937893380558	2
0	15295	2326.937893380558	1
0	15298	2326.972333761479	0
0	15402	2339.688769427936	1
0	15403	2339.798946676071	0
0	15409	2340.327285048365	1
0	15410	2340.343633000498	0
0	15577	2365.51815354526	1
0	15578	2365.613814715981	0
0	15633	2372.918205694872	1
0	15634	2373.069815524047	0
0	15675	2377.349644532734	1
0	15676	2377.413261122236	0
0	15731	2383.468023863663	1
0	15732	2383.609734216932	0
0	15745	2384.113879531628	1
0	15746	2384.468023863663	0
0	15749	2384.534346842198	1
0	15750	2384.534346842198	2
0	15751	2384.609734216932	1
0	15753	2385.065499215113	0
0	16018	2426.301973982987	1
0	16019	2426.63485688626	0
0	16256	2463.100836423168	1
0	16257	2463.260203173401	0
0	16277	2464.685913367244	1
0	16279	2464.805926063606	2
0	16280	2464.805926063606	3
0	16281	2465.223981041551	2
0	16282	2465.223981041551	1
0	16285	2465.650177682744	0
0	16515	2496.414342568469	1
0	16516	2496.883093202629	0
0	16522	2497.326719273503	1
0	16523	2497.400496766688	0
0	16592	2508.284628631251	1
0	16593	2508.34986361421	0
0	16599	2508.920062543252	1
0	16600	2509.258695674733	0
0	16648	2516.067778934542	1
0	16649	2516.297181068789	0
0	16823	2539.123791201534	1
0	16824	2539.435828760608	0
0	16830	2539.599158483305	1
0	16831	2540.048843794362	0
0	16956	2557.002101972087	1
0	16957	2557.020724430564	0
0	16970	2557.867630852856	1
0	16971	2558.002101972087	0
0	17544	2650.284111291036	1
0	17545	2650.423845191342	0
0	17565	2652.428883269822	1
0	17566	2652.571827310609	0
0	17572	2652.94549023677	1
0	17573	2653.224100034728	0
0	17768	2680.420129001272	1
0	17769	2680.943141546166	0
0	17838	2691.45858121083	1
0	17839	2692.026639079132	0
0	18440	2785.290364455299	1
0	18441	2786.131666450187	0
0	18458	2786.612091181266	1
0	18459	2786.612091181266	2
0	18460	2787.131666450187	1
0	18463	2787.373553739084	2
0	18464	2787.373553739084	3
0	18465	2787.524163757355	2
0	18466	2787.524163757355	1
0	18469	2787.57313483428	0
0	18545	2798.579503399924	1
0	18546	2798.913331558204	0
0	18552	2799.305359199152	1
0	18554	2799.509852442647	2
0	18555	2799.509852442647	3
0	18556	2799.549341114263	2
0	18557	2799.549341114263	1
0	18560	2799.579503399924	0
0	18972	2864.205872798796	1
0	18973	2864.494176326799	0
0	18979	2864.716272156758	1
0	18980	2865.173198433777	0
0	19091	2881.073954291851	1
0	19092	2881.079223979804	0
0	19238	2901.433741606147	1
0	19239	2901.682290457121	0
0	19553	2954.760785368704	1
0	19554	2955.024758696116	0
0	19581	2959.035886161598	1
0	19582	2959.227785199594	0
0	19630	2964.475063640974	1
0	19631	2964.478802634541	0
0	19700	2976.414863194907	1
0	19701	2976.520858216388	0
0	19707	2976.845783804496	1
0	19708	2977.085192656961	0
0	19763	2985.229435686441	1
0	19765	2985.642790067518	2
0	19766	2985.642790067518	3
0	19767	2985.706344736365	2
0	19768	2985.706344736365	1
0	19771	2985.729976933759	0
0	20071	3034.900672140281	1
0	20072	3035.12443432843	0
0	20120	3042.043442663758	1
0	20121	3042.139955804125	0
0	20351	3077.974265201637	1
0	20352	3078.431335821666	0
0	20393	3081.246073153719	1
0	20394	3081.617944348171	0
0	20792	3142.428667459081	1
0	20793	3142.764481641586	0
0	20974	3171.906681043813	1
0	20975	3171.953881598099	0
0	21310	3224.818894638499	1
0	21311	3225.041582495611	0
0	21317	3225.237774180358	1
0	21318	3225.792904111758	0
0	21366	3232.041920559043	1
0	21367	3232.254475769061	0
0	21499	3249.703575740083	1
0	21500	3250.172546168542	0
0	21506	3250.503756615691	1
0	21507	3250.508804983679	0
0	21667	3280.10808654841	1
0	21668	3280.255501660972	0
0	21828	3301.444030690904	1
0	21829	3301.716071921236	0
0	21898	3310.799302705849	1
0	21899	3311.01327522183	0
0	21905	3311.410588414015	1
0	21906	3311.561769472178	0
0	22024	3328.248754320221	1
0	22025	3328.373763159343	0
0	22031	3328.406631421154	1
0	22032	3328.927152089162	0
0	22108	3338.804184479773	1
0	22109	3339.039303896417	0
0	22115	3339.217991499224	1
0	22116	3339.751734517331	0
0	22367	3380.36340838946	1
0	22368	3380.571022255277	0
0	22423	3388.490751554011	1
0	22424	3388.762107449077	0
0	22458	3392.959615168335	1
0	22459	3392.984680453941	0
0	22486	3395.441159412041	1
0	22487	3395.546136978151	0
0	22605	3412.598504548149	1
0	22606	3412.668413066001	0
0	22745	3434.647724202172	1
0	22746	3434.848709710069	0
0	22983	3470.612251924338	1
0	22984	3471.10389406515	0
0	23081	3484.975220178739	1
0	23082	3485.20252954758	0
0	23235	3510.528234310448	1
0	23236	3510.697826349265	0
0	23424	3537.823027033556	1
0	23425	3538.102277548446	0
0	23599	3563.604456260703	1
0	23600	3563.645497108242	0
0	23606	3564.087734766707	1
0	23607	3564.092097385223	0
0	23613	3564.600879450957	1
0	23614	3564.604456260703	0
0	23620	3565.048789668485	1
0	23621	3565.087734766707	0
0	23641	3567.507154324195	1
0	23643	3567.621336387176	2
0	23644	3567.621336387176	3
0	23645	3567.786275134847	2
0	23646	3567.786275134847	1
0	23649	3567.940363792572	0
0	23655	3568.439346946717	1
0	23656	3568.507154324195	0
0	23781	3584.834020987401	1
0	23782	3584.860820227804	0
0	23823	3589.499614551497	1
0	23824	3589.539947549816	0
0	23879	3597.367186887971	1
0	23880	3597.530244987779	0
1	0	0	0
1	10	11	1
1	11	11	1
1	14	11.000092175734	0
1	15	11.000092175734	0
1	21	11.940881222857	0
1	23	12	0
1	25	12.712217492249	0
1	26	12.712217492249	0
1	38	13.785780408363	1
1	39	13.785780408363	1
1	42	13.957633433942	0
1	43	13.957633433942	0
1	46	14.036117295646	0
1	51	14.785780408363	0
1	53	15.657118327329	0
1	54	15.657118327329	0
1	60	17.372793208754	0
1	61	17.372793208754	0
1	67	19.219982665541	0
1	68	19.219982665541	0
1	77	21.036151693343	0
1	78	21.036151693343	0
1	81	21.124191052546	0
1	82	21.124191052546	0
1	88	22.509168814318	0
1	89	22.509168814318	0
1	95	24.348675460816	0
1	96	24.348675460816	0
1	105	25.993901519775	0
1	106	25.993901519775	0
1	109	26.331358269374	0
1	110	26.331358269374	0
1	116	28.109057759787	0
1	117	28.109057759787	0
1	123	29.350446443542	0
1	124	29.350446443542	0
1	130	30.39582298765	0
1	131	30.39582298765	0
1	137	31.398790982443	0
1	138	31.398790982443	0
1	147	32.417351221771	0
1	148	32.417351221771	0
1	151	33.072749401236	0
1	152	33.072749401236	0
1	158	34.326301383502	0
1	159	34.326301383502	0
1	165	36.127307615045	0
1	166	36.127307615045	0
1	172	37.144672149792	0
1	173	37.144672149792	0
1	179	38.685352363867	0
1	180	38.685352363867	0
1	189	40.018646344749	0
1	190	40.018646344749	0
1	196	40.874593501205	0
1	197	40.874593501205	0
1	200	41.436504001432	0
1	201	41.436504001432	0
1	213	42.870704992271	1
1	214	42.870704992271	1
1	217	43.334283031489	0
1	218	43.334283031489	0
1	221	43.673242867635	0
1	223	43.870704992271	0
1	228	45.012844597183	0
1	229	45.012844597183	0
1	235	46.517018335603	0
1	236	46.517018335603	0
1	245	47.548652682341	0
1	246	47.548652682341	0
1	252	48.446600130886	0
1	253	48.446600130886	0
1	256	49.174849726001	0
1	257	49.174849726001	0
1	266	50.245843542807	0
1	267	50.245843542807	0
1	270	50.300273941442	0
1	271	50.300273941442	0
1	280	52.163449516256	0
1	281	52.163449516256	0
1	284	52.485281840534	0
1	285	52.485281840534	0
1	291	53.704298926487	0
1	292	53.704298926487	0
1	301	54.989724791722	0
1	302	54.989724791722	0
1	305	55.417557665018	0
1	306	55.417557665018	0
1	312	56.489680166158	0
1	313	56.489680166158	0
1	322	57.999411041928	0
1	323	57.999411041928	0
1	326	58.732378210813	0
1	327	58.732378210813	0
1	336	59.898608891677	0
1	337	59.898608891677	0
1	340	60.597912958982	0
1	341	60.597912958982	0
1	347	61.900418901185	0
1	348	61.900418901185	0
1	354	62.943375715106	0
1	355	62.943375715106	0
1	364	64.755394120368	0
1	365	64.755394120368	0
1	371	65.699467860777	0
1	372	65.699467860777	0
1	381	66.2975485034	1
1	382	66.2975485034	1
1	385	66.935632358834	0
1	386	66.935632358834	0
1	389	66.98863880374	0
1	391	67.2975485034	0
1	399	68.814138183732	0
1	400	68.814138183732	0
1	406	69.740261947954	0
1	407	69.740261947954	0
1	410	70.485914068364	0
1	411	70.485914068364	0
1	417	72.031600979704	0
1	418	72.031600979704	0
1	427	73.419860281891	0
1	428	73.419860281891	0
1	431	74.306637474395	0
1	432	74.306637474395	0
1	441	75.678476719658	0
1	442	75.678476719658	0
1	445	76.411810457759	0
1	446	76.411810457759	0
1	452	78.132525467539	0
1	453	78.132525467539	0
1	459	79.285058482089	0
1	460	79.285058482089	0
1	466	80.29662840455	0
1	467	80.29662840455	0
1	473	81.596644953792	0
1	474	81.596644953792	0
1	480	84.172604651767	0
1	481	84.172604651767	0
1	487	85.636772621895	0
1	488	85.636772621895	0
1	494	86.750275379361	0
1	495	86.750275379361	0
1	504	88.370477818356	0
1	505	88.370477818356	0
1	508	88.988687881401	0
1	509	88.988687881401	0
1	515	90.422274250197	0
1	516	90.422274250197	0
1	525	91.89092243756	0
1	526	91.89092243756	0
1	529	92.08771084718	0
1	530	92.08771084718	0
1	536	93.144376756961	0
1	537	93.144376756961	0
1	543	94.472130857357	0
1	544	94.472130857357	0
1	550	96.130080552067	0
1	551	96.130080552067	0
1	563	98.200401128426	1
1	564	98.200401128426	1
1	567	98.861629619161	0
1	568	98.861629619161	0
1	571	98.974267212714	0
1	576	99.200401128426	0
1	578	100.083973085741	0
1	579	100.083973085741	0
1	585	101.358042376398	0
1	586	101.358042376398	0
1	592	102.751812371698	0
1	593	102.751812371698	0
1	602	104.545421721648	0
1	603	104.545421721648	0
1	609	104.940774120653	0
1	610	104.940774120653	0
1	613	105.787557938563	0
1	614	105.787557938563	0
1	623	107.700307737882	0
1	624	107.700307737882	0
1	630	108.565523724727	0
1	631	108.565523724727	0
1	634	108.746045990382	0
1	635	108.746045990382	0
1	641	110.141503539478	0
1	642	110.141503539478	0
1	648	111.84129073423	0
1	649	111.84129073423	0
1	655	113.328028229637	0
1	656	113.328028229637	0
1	662	114.54967741309	0
1	663	114.54967741309	0
1	672	116.568713469591	0
1	673	116.568713469591	0
1	679	117.553081436425	0
1	680	117.553081436425	0
1	683	118.337937660608	0
1	684	118.337937660608	0
1	696	119.679252561987	1
1	697	119.679252561987	1
1	700	120.117820874163	0
1	701	120.117820874163	0
1	704	120.457048757536	0
1	706	120.679252561987	0
1	711	122.121521886798	0
1	712	122.121521886798	0
1	721	123.701342165407	0
1	722	123.701342165407	0
1	725	124.550837878968	0
1	726	124.550837878968	0
1	735	126.408210292275	0
1	736	126.408210292275	0
1	739	126.59232657382	0
1	740	126.59232657382	0
1	749	127.899580220018	0
1	750	127.899580220018	0
1	753	128.169211571192	0
1	754	128.169211571192	0
1	760	129.236415077721	0
1	761	129.236415077721	0
1	770	130.435409904845	0
1	771	130.435409904845	0
1	777	130.980274268411	0
1	778	130.980274268411	0
1	784	131.909688371794	0
1	785	131.909688371794	0
1	788	132.486692948444	0
1	789	132.486692948444	0
1	795	133.669628959816	0
1	796	133.669628959816	0
1	802	134.716763704169	0
1	803	134.716763704169	0
1	809	136.249580518717	0
1	810	136.249580518717	0
1	816	137.500993925687	0
1	817	137.500993925687	0
1	826	138.959458217826	0
1	827	138.959458217826	0
1	836	139.693971993501	1
1	837	139.693971993501	1
1	840	140.347228361091	0
1	841	140.347228361091	0
1	844	140.597408283566	0
1	846	140.693971993501	0
1	854	142.591082526849	0
1	855	142.591082526849	0
1	861	142.801631373416	0
1	862	142.801631373416	0
1	865	143.795763137059	0
1	866	143.795763137059	0
1	875	145.160655854234	0
1	876	145.160655854234	0
1	882	146.118618628799	0
1	883	146.118618628799	0
1	886	146.811232426274	0
1	887	146.811232426274	0
1	896	147.888236768203	0
1	897	147.888236768203	0
1	900	148.370392086667	0
1	901	148.370392086667	0
1	907	150.223313511885	0
1	908	150.223313511885	0
1	917	151.267588872097	0
1	918	151.267588872097	0
1	921	151.904020181972	0
1	922	151.904020181972	0
1	928	153.422514455024	0
1	929	153.422514455024	0
1	935	155.159193642705	0
1	936	155.159193642705	0
1	945	156.425948523277	0
1	946	156.425948523277	0
1	952	157.390900341895	0
1	953	157.390900341895	0
1	956	158.117038134237	0
1	957	158.117038134237	0
1	966	159.726461579246	0
1	967	159.726461579246	0
1	973	160.700025914608	0
1	974	160.700025914608	0
1	977	161.686701015061	0
1	978	161.686701015061	0
1	987	162.861980815799	0
1	988	162.861980815799	0
1	991	163.573771298548	0
1	992	163.573771298548	0
1	1001	165.015484858277	0
1	1002	165.015484858277	0
1	1005	165.129578389148	0
1	1006	165.129578389148	0
1	1012	166.804032165976	0
1	1013	166.804032165976	0
1	1019	168.250505978851	0
1	1020	168.250505978851	0
1	1035	169.756421501454	1
1	1036	169.756421501454	1
1	1039	169.913821460945	1
1	1040	169.913821460945	1
1	1043	169.988150173767	0
1	1045	170.756421501454	0
1	1046	170.756421501454	0
1	1052	170.913821460945	0
1	1054	171.81739927797	0
1	1055	171.81739927797	0
1	1064	173.14582297744	0
1	1065	173.14582297744	0
1	1071	174.134281793813	0
1	1072	174.134281793813	0
1	1075	174.912604057014	0
1	1076	174.912604057014	0
1	1085	176.207455110509	0
1	1086	176.207455110509	0
1	1092	177.13005111882	0
1	1093	177.13005111882	0
1	1096	177.249814598686	0
1	1097	177.249814598686	0
1	1106	178.588195017769	0
1	1107	178.588195017769	0
1	1110	179.14302713187	0
1	1111	179.14302713187	0
1	1117	180.393664831917	0
1	1118	180.393664831917	0
1	1127	182.228407553669	0
1	1128	182.228407553669	0
1	1131	182.730914674813	0
1	1132	182.730914674813	0
1	1141	184.471007623714	0
1	1142	184.471007623714	0
1	1145	185.236533314766	0
1	1146	185.236533314766	0
1	1152	186.365911789542	0
1	1153	186.365911789542	0
1	1162	187.709721854888	0
1	1163	187.709721854888	0
1	1169	188.080523658767	0
1	1170	188.080523658767	0
1	1173	188.947098715107	0
1	1174	188.947098715107	0
1	1180	190.595700595972	0
1	1181	190.595700595972	0
1	1190	192.112722617317	0
1	1191	192.112722617317	0
1	1194	192.8873418908	0
1	1195	192.8873418908	0
1	1201	194.990513285344	0
1	1202	194.990513285344	0
1	1208	196.485157363686	0
1	1209	196.485157363686	0
1	1218	197.584986855764	0
1	1219	197.584986855764	0
1	1222	198.497352282089	0
1	1223	198.497352282089	0
1	1229	199.620676681066	0
1	1230	199.620676681066	0
1	1242	201.486723918586	1
1	1243	201.486723918586	1
1	1246	201.593633904233	0
1	1247	201.593633904233	0
1	1250	201.883915380812	0
1	1255	202.486723918586	0
1	1257	203.444560304586	0
1	1258	203.444560304586	0
1	1264	204.586153134236	0
1	1265	204.586153134236	0
1	1274	206.643709341654	0
1	1275	206.643709341654	0
1	1281	207.62091754366	0
1	1282	207.62091754366	0
1	1288	208.504545469538	0
1	1289	208.504545469538	0
1	1292	208.701709015384	0
1	1293	208.701709015384	0
1	1302	210.205324022818	0
1	1303	210.205324022818	0
1	1306	211.075123046617	0
1	1307	211.075123046617	0
1	1313	212.829073841881	0
1	1314	212.829073841881	0
1	1323	214.394968771356	0
1	1324	214.394968771356	0
1	1327	214.617266959837	0
1	1328	214.617266959837	0
1	1334	216.23094044157	0
1	1335	216.23094044157	0
1	1341	217.326005149184	0
1	1342	217.326005149184	0
1	1348	219.015693150646	0
1	1349	219.015693150646	0
1	1358	220.370499004689	0
1	1359	220.370499004689	0
1	1362	220.577865255103	0
1	1363	220.577865255103	0
1	1372	221.911814693684	0
1	1373	221.911814693684	0
1	1376	222.908162323783	0
1	1377	222.908162323783	0
1	1383	224.361553902691	0
1	1384	224.361553902691	0
1	1393	225.433783844187	0
1	1394	225.433783844187	0
1	1397	225.462261562687	0
1	1398	225.462261562687	0
1	1404	226.494874229886	0
1	1405	226.494874229886	0
1	1411	227.740965284676	0
1	1412	227.740965284676	0
1	1424	230.097307349001	1
1	1425	230.097307349001	1
1	1428	230.137436194906	0
1	1429	230.137436194906	0
1	1432	230.915174838481	0
1	1434	231.097307349001	0
1	1439	232.45194663146	0
1	1440	232.45194663146	0
1	1446	234.715026482982	0
1	1447	234.715026482982	0
1	1456	235.958893205005	0
1	1457	235.958893205005	0
1	1463	236.782528772315	0
1	1464	236.782528772315	0
1	1467	237.682389798028	0
1	1468	237.682389798028	0
1	1477	239.237454687087	0
1	1478	239.237454687087	0
1	1481	239.677561643482	0
1	1482	239.677561643482	0
1	1488	240.919420568111	0
1	1489	240.919420568111	0
1	1495	242.633613191762	0
1	1496	242.633613191762	0
1	1502	244.656546088532	0
1	1503	244.656546088532	0
1	1512	246.277564641897	0
1	1513	246.277564641897	0
1	1516	246.765433428713	0
1	1517	246.765433428713	0
1	1523	247.798907028155	0
1	1524	247.798907028155	0
1	1530	249.002170659235	0
1	1531	249.002170659235	0
1	1540	250.557594447184	0
1	1541	250.557594447184	0
1	1544	251.427394104667	0
1	1545	251.427394104667	0
1	1554	252.514727544586	0
1	1555	252.514727544586	0
1	1558	253.102531771758	0
1	1559	253.102531771758	0
1	1571	254.891240139087	1
1	1572	254.891240139087	1
1	1578	255.381481435443	1
1	1579	255.381481435443	1
1	1582	255.857473043223	0
1	1584	255.891240139087	0
1	1589	256.358614393958	0
1	1591	256.381481435443	0
1	1593	256.980874426056	0
1	1594	256.980874426056	0
1	1600	258.309095724741	0
1	1601	258.309095724741	0
1	1607	259.857980509151	0
1	1608	259.857980509151	0
1	1614	260.947630649073	0
1	1615	260.947630649073	0
1	1621	262.088784411112	0
1	1622	262.088784411112	0
1	1628	263.430149948545	0
1	1629	263.430149948545	0
1	1635	264.555598727622	0
1	1636	264.555598727622	0
1	1642	265.578070044537	0
1	1643	265.578070044537	0
1	1652	267.438407490455	0
1	1653	267.438407490455	0
1	1656	268.294399548582	0
1	1657	268.294399548582	0
1	1666	269.612516935829	0
1	1667	269.612516935829	0
1	1670	270.443328301867	0
1	1671	270.443328301867	0
1	1680	271.838775803107	0
1	1681	271.838775803107	0
1	1684	272.516980800722	0
1	1685	272.516980800722	0
1	1691	274.385482992028	0
1	1692	274.385482992028	0
1	1698	275.582317056499	0
1	1699	275.582317056499	0
1	1705	277.244713334021	0
1	1706	277.244713334021	0
1	1715	278.836204599759	0
1	1716	278.836204599759	0
1	1719	279.719319050622	0
1	1720	279.719319050622	0
1	1729	280.761076331205	0
1	1730	280.761076331205	0
1	1733	281.298432993378	0
1	1734	281.298432993378	0
1	1740	282.502366556651	0
1	1741	282.502366556651	0
1	1747	284.035776792497	0
1	1748	284.035776792497	0
1	1754	285.173574431097	0
1	1755	285.173574431097	0
1	1761	286.675938740783	0
1	1762	286.675938740783	0
1	1768	287.824179813791	0
1	1769	287.824179813791	0
1	1778	289.073260770968	0
1	1779	289.073260770968	0
1	1782	289.438212808999	0
1	1783	289.438212808999	0
1	1789	290.858721965579	0
1	1790	290.858721965579	0
1	1796	292.011860495762	0
1	1797	292.011860495762	0
1	1803	293.19642354811	0
1	1804	293.19642354811	0
1	1810	294.227527580987	0
1	1811	294.227527580987	0
1	1820	295.531137632363	0
1	1821	295.531137632363	0
1	1824	296.487800347485	0
1	1825	296.487800347485	0
1	1831	297.667365171568	0
1	1832	297.667365171568	0
1	1838	299.153521978903	0
1	1839	299.153521978903	0
1	1845	301.08546605949	0
1	1846	301.08546605949	0
1	1855	302.306540055513	0
1	1856	302.306540055513	0
1	1859	303.261346794092	0
1	1860	303.261346794092	0
1	1866	304.858488900666	0
1	1867	304.858488900666	0
1	1876	306.270249055731	0
1	1877	306.270249055731	0
1	1886	307.053513114815	1
1	1887	307.053513114815	1
1	1890	307.601193630053	0
1	1891	307.601193630053	0
1	1894	307.968922304444	0
1	1896	308.053513114815	0
1	1901	309.238385833097	0
1	1902	309.238385833097	0
1	1908	310.766908081761	0
1	1909	310.766908081761	0
1	1918	312.544533842923	0
1	1919	312.544533842923	0
1	1925	313.317174027993	0
1	1926	313.317174027993	0
1	1932	314.229969288681	0
1	1933	314.229969288681	0
1	1939	315.17255720196	0
1	1940	315.17255720196	0
1	1943	315.261448922579	0
1	1944	315.261448922579	0
1	1950	316.621678544822	0
1	1951	316.621678544822	0
1	1960	317.626920928104	0
1	1961	317.626920928104	0
1	1967	318.214980804472	0
1	1968	318.214980804472	0
1	1971	318.921864910823	0
1	1972	318.921864910823	0
1	1978	321.315073461425	0
1	1979	321.315073461425	0
1	1988	322.499365472827	0
1	1989	322.499365472827	0
1	1992	323.123412327526	0
1	1993	323.123412327526	0
1	1999	324.420952265313	0
1	2000	324.420952265313	0
1	2009	325.69914389991	0
1	2010	325.69914389991	0
1	2013	326.210124455123	0
1	2014	326.210124455123	0
1	2023	329.096805574511	0
1	2024	329.096805574511	0
1	2030	329.913960050023	0
1	2031	329.913960050023	0
1	2034	330.324387164154	0
1	2035	330.324387164154	0
1	2044	331.533816362305	0
1	2045	331.533816362305	0
1	2051	331.887806911176	0
1	2052	331.887806911176	0
1	2055	332.556691989055	0
1	2056	332.556691989055	0
1	2065	333.600106583956	0
1	2066	333.600106583956	0
1	2069	333.92609528457	0
1	2070	333.92609528457	0
1	2079	335.857772278889	0
1	2080	335.857772278889	0
1	2086	336.834270140072	0
1	2087	336.834270140072	0
1	2093	337.77939259744	0
1	2094	337.77939259744	0
1	2100	338.562147572538	0
1	2101	338.562147572538	0
1	2104	339.494301854795	0
1	2105	339.494301854795	0
1	2114	340.604939777884	0
1	2115	340.604939777884	0
1	2118	341.588435625201	0
1	2119	341.588435625201	0
1	2125	343.802374616262	0
1	2126	343.802374616262	0
1	2132	345.005207230202	0
1	2133	345.005207230202	0
1	2139	346.111170295025	0
1	2140	346.111170295025	0
1	2146	347.551965597662	0
1	2147	347.551965597662	0
1	2153	348.602636313089	0
1	2154	348.602636313089	0
1	2163	350.462331007122	0
1	2164	350.462331007122	0
1	2170	351.30299317786	0
1	2171	351.30299317786	0
1	2177	352.11531543579	0