version 3
run MMc-10-20221127-11:38:40-7588
attr configname MMc
attr datetime 20221127-11:38:40
attr datetimef 20221127-113840
attr experiment MMc
attr inifile omnetpp.ini
attr iterationvars "$mean=uniform(0.5s, 1.5s), $dev=0.5*(uniform(0.5s, 1.5s)), $time=1.0, $num=5, $0=47853, $1=24674, $2=96433"
attr iterationvarsd mean=uniform(0.5s,_1.5s)/dev=0.5#2a(uniform(0.5s,_1.5s))/time=1.0/num=5/47853/24674/96433
attr iterationvarsf mean=uniform(0.5s,_1.5s),dev=0.5#2a(uniform(0.5s,_1.5s)),time=1.0,num=5,47853,24674,96433-
attr measurement "$mean=uniform(0.5s, 1.5s), $dev=0.5*(uniform(0.5s, 1.5s)), $time=1.0, $num=5, $0=47853, $1=24674, $2=96433"
attr network MMc
attr processid 7588
attr repetition 2
attr replication #2
attr resultdir results
attr runnumber 10
attr seedset 10
itervar dev "0.5*(uniform(0.5s, 1.5s))"
itervar mean "uniform(0.5s, 1.5s)"
itervar num 5
itervar time 1.0
config description "MMc module"
config network MMc
config MMc.source.interArrivalTime "truncnormal(uniform(0.5s, 1.5s), 0.5*(uniform(0.5s, 1.5s)))"
config MMc.mmc.serviceTime 1.0s
config MMc.mmc.c 5
config MMc.mmc.capacity 10000
config record-eventlog false
config **.scalar-recording true
config **.vector-recording true
config repeat 4
config seed-1-mt 47853
config seed-2-mt 24674
config seed-3-mt 96433
config output-vector-file MMc-5-1.0-results/2.vec
config output-scalar-file MMc-5-1.0-results/2.sca

vector 0 MMc.mmc queueLength:vector ETV
attr interpolationmode none
attr recordingmode vector
attr title "queue length"
vector 1 MMc.mmc util:vector ETV
attr interpolationmode none
attr recordingmode vector
attr title resources
0	0	0	0
0	646	112.860533750977	1
0	647	113.135069736869	0
0	653	113.464235459973	1
0	654	113.754795273919	0
0	751	127.36163001299	1
0	752	127.513092583662	0
0	758	128.12516760836	1
0	759	128.17138299548	0
0	779	130.256020206045	1
0	780	130.302978706177	0
0	786	130.393177354824	1
0	787	131.083282723012	0
0	1073	175.158250875902	1
0	1074	176.080151645887	0
0	1091	176.68578389753	1
0	1092	176.68578389753	2
0	1093	177.080151645887	1
0	1096	177.272535063001	2
0	1097	177.272535063001	3
0	1098	177.276632607808	2
0	1099	177.276632607808	1
0	1102	177.320437807414	0
0	1108	177.633672469596	1
0	1109	178.080151645887	0
0	1213	191.781666987446	1
0	1214	191.877514148385	0
0	1290	202.283517733225	1
0	1291	202.593409168262	0
0	1815	280.267147935555	1
0	1816	280.74690694818	0
0	1822	280.832329421743	1
0	1823	281.071103236366	0
0	1843	282.169386718357	1
0	1845	282.381643744129	2
0	1846	282.381643744129	3
0	1848	282.694924917815	4
0	1849	282.694924917815	5
0	1850	282.709227788117	4
0	1851	282.709227788117	3
0	1854	282.874109976581	2
0	1855	282.874109976581	1
0	1858	283.169386718357	0
0	1878	284.804796284342	1
0	1879	284.959331411745	0
0	2060	309.3198491997	1
0	2061	309.34557526975	0
0	2284	337.906475812901	1
0	2285	337.969177613611	0
0	2333	345.724205441552	1
0	2334	346.268434025359	0
0	2347	346.473614720877	1
0	2348	346.724205441552	0
0	2417	356.512801308761	1
0	2418	356.861748430647	0
0	2459	363.511653043284	1
0	2460	363.775903136657	0
0	2466	364.089388805159	1
0	2467	364.345516348226	0
0	2508	369.346302048976	1
0	2509	369.385937312254	0
0	2662	394.555344275912	1
0	2663	394.631669657631	0
0	2676	395.274203919752	1
0	2678	395.546631795556	2
0	2679	395.546631795556	3
0	2680	395.555344275912	2
0	2682	395.631669657631	1
0	2684	396.153963475128	0
0	2725	400.359480270923	1
0	2726	400.555368256773	0
0	2739	401.309435337219	1
0	2740	401.359480270923	0
0	2998	441.409139359115	1
0	2999	441.498407931126	0
0	3005	441.590030727067	1
0	3006	442.332031327059	0
0	3201	473.469103669358	1
0	3202	473.534220678003	0
0	3341	493.937203382972	1
0	3342	494.316795969544	0
0	3376	498.473469047096	1
0	3377	498.509373441691	0
0	3579	526.421603529513	1
0	3580	526.426620800021	0
0	3642	536.902253879745	1
0	3643	537.021895242191	0
0	3649	537.461664025914	1
0	3650	537.605047971157	0
0	3656	537.691655305278	1
0	3657	537.902253879745	0
0	3663	538.142236364273	1
0	3664	538.461664025914	0
0	3754	552.466261232237	1
0	3755	552.505372135617	0
0	3845	564.698263378865	1
0	3846	565.023315275411	0
0	3950	580.186470668494	1
0	3952	580.197545741906	2
0	3953	580.197545741906	3
0	3954	580.406739166676	2
0	3955	580.406739166676	1
0	3959	580.846002068619	2
0	3960	580.846002068619	3
0	3961	581.06947881692	2
0	3962	581.06947881692	1
0	3966	581.18340438636	2
0	3967	581.18340438636	3
0	3968	581.186470668494	2
0	3970	581.406739166676	1
0	3971	581.406739166676	0
0	4062	595.454565934698	1
0	4063	595.859060802174	0
0	4244	625.366866745722	1
0	4246	625.387391461944	2
0	4247	625.387391461944	3
0	4248	625.740081910848	2
0	4249	625.740081910848	1
0	4252	625.913317969122	0
0	4468	662.969083443547	1
0	4469	663.094731552767	0
0	4475	663.685084531045	1
0	4476	663.7146048373	0
0	4573	677.661521729585	1
0	4574	677.775216747579	0
0	4580	678.105579302666	1
0	4581	678.644332772156	0
0	4615	681.958222565431	1
0	4616	682.093014310418	0
0	4755	703.184638729294	1
0	4756	703.240353425857	0
0	4797	711.036002663942	1
0	4798	711.094380501477	0
0	4804	711.187491336647	1
0	4805	711.954005777013	0
0	4930	732.485992650369	1
0	4931	732.564636686341	0
0	4958	734.987996751972	1
0	4959	735.476305387155	0
0	5182	770.173351094638	1
0	5183	770.376518718209	0
0	5588	838.035545426661	1
0	5589	838.181713477406	0
0	5672	852.236294677896	1
0	5673	852.554435411376	0
0	5742	863.757269241957	1
0	5743	864.373717737117	0
0	5749	864.61067591927	1
0	5750	864.694304771541	0
0	5854	879.186441029271	1
0	5855	879.541378814683	0
0	6099	921.022737979664	1
0	6100	921.443279359853	0
0	6106	921.843760009483	1
0	6107	921.93133491629	0
0	6190	933.78713450558	1
0	6192	934.193623233215	2
0	6193	934.193623233215	3
0	6194	934.255324533118	2
0	6195	934.255324533118	1
0	6198	934.673058505084	0
0	6218	936.356746769442	1
0	6219	936.904870521224	0
0	6358	958.754118139532	1
0	6359	958.997417982045	0
0	6596	996.363155969229	1
0	6597	996.611544769015	0
0	6603	997.16959518795	1
0	6604	997.279916583498	0
0	6638	1000.497197939259	1
0	6639	1000.764916904234	0
0	6701	1008.050803240726	1
0	6702	1008.141213532793	0
0	6890	1037.854427163536	1
0	6891	1038.26848017992	0
0	6897	1038.553682331291	1
0	6898	1038.60738730877	0
0	6911	1039.526137542861	1
0	6912	1039.553682331291	0
0	6932	1042.924519658503	1
0	6933	1043.082121401856	0
0	7023	1058.151499400613	1
0	7024	1058.182161368026	0
0	7030	1058.651098342567	1
0	7031	1058.854533378394	0
0	7044	1059.41093876275	1
0	7045	1059.651098342567	0
0	7191	1077.943552695582	1
0	7193	1078.28605633701	2
0	7194	1078.28605633701	3
0	7195	1078.328295376506	2
0	7196	1078.328295376506	1
0	7199	1078.885085632026	0
0	7275	1087.617028209449	1
0	7276	1087.891743875111	0
0	7331	1094.710205506125	1
0	7332	1094.828410150387	0
0	7338	1095.444693611859	1
0	7339	1095.46809536571	0
0	7422	1106.96873404342	1
0	7423	1107.177924086551	0
0	7429	1107.570786226073	1
0	7430	1107.71196055141	0
0	7436	1107.881336633904	1
0	7437	1107.96873404342	0
0	7492	1114.173021884018	1
0	7493	1114.214262782204	0
0	7499	1114.60742811767	1
0	7500	1114.885826229126	0
0	7520	1117.114998806402	1
0	7521	1117.303229695405	0
0	7527	1117.372306800894	1
0	7528	1117.396877131655	0
0	7688	1144.579552155758	1
0	7689	1144.598189936941	0
0	7695	1145.283960059241	1
0	7696	1145.439039063861	0
0	7975	1184.719770329374	1
0	7976	1184.782588275007	0
0	8108	1205.117776163259	1
0	8109	1205.280451717613	0
0	8136	1207.614885425101	1
0	8137	1207.652132793155	0
0	8206	1217.859308797485	1
0	8207	1217.919068500784	0
0	8227	1219.828201394855	1
0	8228	1219.868066335286	0
0	8283	1229.089631491695	1
0	8285	1229.180650821393	2
0	8286	1229.180650821393	3
0	8287	1229.213751080537	2
0	8288	1229.213751080537	1
0	8292	1229.279047721332	2
0	8293	1229.279047721332	3
0	8294	1229.67590970693	2
0	8295	1229.67590970693	1
0	8298	1230.089631491695	0
0	8318	1231.251776157731	1
0	8319	1231.694358404358	0
0	8339	1234.241471296523	1
0	8340	1234.340443385114	0
0	8381	1242.563988422146	1
0	8382	1242.633439229197	0
0	8388	1242.96516038317	1
0	8389	1243.059585232704	0
0	8395	1243.170538267753	1
0	8396	1243.563988422146	0
0	8556	1269.603439962181	1
0	8558	1269.817194106089	2
0	8559	1269.817194106089	3
0	8560	1269.878066678492	2
0	8561	1269.878066678492	1
0	8564	1269.955201561938	0
0	8703	1290.20831236938	1
0	8704	1290.384302848719	0
0	8808	1304.842096986174	1
0	8809	1305.330974791581	0
0	8864	1313.014244515072	1
0	8865	1313.278776520235	0
0	8906	1319.750840918565	1
0	8907	1319.820334645901	0
0	8997	1334.248071822562	1
0	8998	1334.546536836048	0
0	9158	1357.975971701358	1
0	9159	1358.142436159149	0
0	9221	1367.057285727533	1
0	9222	1367.255346655514	0
0	9431	1399.637194448068	1
0	9432	1399.692819800564	0
0	9522	1408.926996513166	1
0	9524	1409.287954841964	2
0	9525	1409.287954841964	3
0	9526	1409.39524523793	2
0	9527	1409.39524523793	1
0	9530	1409.867750298801	0
0	9550	1411.973630023053	1
0	9551	1412.123820602042	0
0	9557	1412.209807950962	1
0	9558	1412.708995835239	0
0	9585	1417.036006476011	1
0	9586	1417.245211737362	0
0	9606	1419.077880074254	1
0	9607	1419.140295972407	0
0	9683	1429.567757939209	1
0	9684	1429.812171451051	0
0	9690	1430.192237561156	1
0	9691	1430.31756098915	0
0	9802	1449.011777263113	1
0	9803	1449.266210675324	0
0	9809	1449.520322092776	1
0	9810	1449.830195777788	0
0	9893	1462.651441437261	1
0	9895	1462.680395445473	2
0	9896	1462.680395445473	3
0	9898	1462.714653815372	4
0	9899	1462.714653815372	5
0	9900	1462.928187241899	4
0	9901	1462.928187241899	3
0	9904	1462.953629522274	2
0	9905	1462.953629522274	1
0	9908	1463.651441437261	0
0	9928	1465.256988890096	1
0	9929	1465.33895888577	0
0	9949	1466.790884606346	1
0	9950	1466.889554953161	0
0	10005	1476.425103100192	1
0	10006	1476.704568605081	0
0	10166	1501.121193677302	1
0	10167	1501.43179187369	0
0	10194	1503.411160362225	1
0	10195	1503.423990083537	0
0	10264	1513.86338190439	1
0	10265	1513.956469571587	0
0	10474	1545.792169168359	1
0	10475	1546.102743782561	0
0	10789	1594.946773054462	1
0	10790	1594.969183536162	0
0	10936	1616.054075690755	1
0	10937	1616.195399787417	0
0	10985	1620.889276903289	1
0	10986	1620.948838125641	0
0	11216	1655.844635085462	1
0	11218	1655.845548477008	2
0	11219	1655.845548477008	3
0	11220	1656.219098499319	2
0	11221	1656.219098499319	1
0	11224	1656.82598217447	0
0	11503	1700.224140310108	1
0	11504	1700.662720765167	0
0	11692	1730.52495935743	1
0	11693	1730.656400109231	0
0	11699	1730.840454541712	1
0	11701	1731.051427446128	2
0	11702	1731.051427446128	3
0	11703	1731.237015792254	2
0	11704	1731.237015792254	1
0	11707	1731.52495935743	0
0	11874	1755.565125588457	1
0	11875	1755.795155574838	0
0	11881	1755.967907919984	1
0	11882	1756.421224004026	0
0	11916	1761.143453052951	1
0	11917	1761.55131615246	0
0	11951	1765.127902818117	1
0	11952	1765.215835123343	0
0	12000	1773.151471066799	1
0	12001	1773.402526279462	0
0	12021	1776.128847683136	1
0	12022	1776.277836154519	0
0	12175	1803.866157772169	1
0	12176	1803.874003143373	0
0	12336	1826.784169695341	1
0	12337	1827.28374367693	0
0	12385	1832.341737807842	1
0	12386	1832.455246180179	0
0	12616	1866.925947323102	1
0	12617	1866.968635867256	0
0	12658	1872.69321307296	1
0	12659	1872.798106926208	0
0	12728	1883.693220029617	1
0	12729	1884.14998580537	0
0	12819	1896.194943577031	1
0	12820	1896.356632488518	0
0	12889	1906.536471179665	1
0	12890	1906.969593471564	0
0	13022	1923.967117801936	1
0	13023	1924.26255244925	0
0	13113	1935.222683558369	1
0	13114	1935.286346202575	0
0	13218	1951.65126055666	1
0	13219	1951.700615771712	0
0	13442	1987.694112949468	1
0	13443	1987.918787328604	0
0	13512	1997.14773210669	1
0	13513	1997.180348689609	0
0	13645	2016.948082993191	1
0	13646	2017.478467373558	0
0	13764	2034.130587563291	1
0	13765	2034.222037610905	0
0	13771	2034.648089062152	1
0	13772	2035.120524964882	0
0	14359	2123.397474365012	1
0	14360	2123.756201356704	0
0	14436	2135.217352690853	1
0	14437	2135.611324503382	0
0	14562	2155.540917823648	1
0	14563	2155.865912849807	0
0	14590	2158.73476770852	1
0	14591	2159.004217414259	0
0	15283	2269.01290657476	1
0	15284	2269.148277427687	0
0	15430	2296.14658784147	1
0	15431	2296.207612353688	0
0	15528	2309.110421119423	1
0	15529	2309.509841385695	0
0	15654	2328.31119931111	1
0	15655	2328.331926378759	0
0	15857	2361.55179993552	1
0	15858	2361.660753647672	0
0	15878	2363.574400884361	1
0	15879	2363.980901457988	0
0	15885	2364.263789292599	1
0	15886	2364.264787602502	0
0	16144	2406.228321567902	1
0	16145	2406.683499290519	0
0	16228	2417.984104714367	1
0	16229	2418.666389880867	0
0	16312	2430.139423036497	1
0	16313	2430.223804342442	0
0	16627	2477.336947298372	1
0	16628	2477.463041306625	0
0	16634	2478.164774477811	1
0	16635	2478.232429100565	0
0	16683	2484.789027007332	1
0	16684	2484.792415414435	0
0	16739	2491.949617680741	1
0	16740	2492.355534340855	0
0	16914	2517.856213304362	1
0	16915	2517.947292053003	0
0	16956	2523.877147221032	1
0	16957	2523.95563206909	0
0	16977	2525.748848626969	1
0	16978	2526.075169603924	0
0	17236	2564.029059203385	1
0	17237	2564.261303518438	0
0	17243	2564.853348145709	1
0	17244	2564.933052922458	0
0	17460	2598.996729567431	1
0	17461	2599.054564755725	0
0	17467	2599.154625150612	1
0	17469	2599.397472282149	2
0	17470	2599.397472282149	3
0	17471	2599.74366376759	2
0	17472	2599.74366376759	1
0	17475	2599.996729567431	0
0	17782	2647.836015836805	1
0	17783	2648.187437456372	0
0	17789	2648.443717849151	1
0	17790	2648.821444757069	0
0	17866	2661.658764044541	1
0	17867	2661.8050691977	0
0	17873	2662.217851639707	1
0	17874	2662.378911398817	0
0	17971	2675.174868238976	1
0	17972	2675.233572437929	0
0	18237	2715.799538097991	1
0	18238	2716.079820892942	0
0	19504	2911.69024867113	1
0	19505	2911.719443455414	0
0	19714	2952.144002779916	1
0	19715	2952.669276404214	0
0	19812	2966.833600492532	1
0	19813	2966.965379221047	0
0	19868	2975.589916349059	1
0	19869	2975.775218362659	0
0	19945	2985.873108334916	1
0	19947	2986.121149791718	2
0	19948	2986.121149791718	3
0	19949	2986.219672473831	2
0	19950	2986.219672473831	1
0	19954	2986.702855762501	2
0	19955	2986.702855762501	3
0	19956	2986.746273732804	2
0	19957	2986.746273732804	1
0	19960	2986.873108334916	0
0	19963	2987.200482068398	1
0	19964	2987.200482068398	2
0	19965	2987.219672473831	1
0	19966	2987.219672473831	0
0	20071	3004.148532015121	1
0	20072	3004.183921659926	0
0	20225	3028.229959336965	1
0	20226	3028.354623219711	0
0	20232	3028.743703835925	1
0	20234	3029.019161249834	2
0	20235	3029.019161249834	3
0	20236	3029.154554675158	2
0	20237	3029.154554675158	1
0	20240	3029.229959336965	0
0	20372	3047.043831951235	1
0	20373	3047.056352180529	0
0	20652	3089.584437316284	1
0	20653	3089.722509398069	0
0	20687	3093.857878860634	1
0	20689	3094.094061347467	2
0	20690	3094.094061347467	3
0	20691	3094.13635840643	2
0	20692	3094.13635840643	1
0	20695	3094.31274945353	0
0	20750	3104.485702504448	1
0	20751	3104.592255216815	0
0	20799	3111.957337194001	1
0	20800	3112.463657154044	0
0	20806	3112.556346626363	1
0	20807	3112.852593004957	0
0	20988	3141.566046685042	1
0	20990	3141.622095417397	2
0	20991	3141.622095417397	3
0	20992	3141.807303527015	2
0	20993	3141.807303527015	1
0	20997	3142.304056709082	2
0	20998	3142.304056709082	3
0	20999	3142.304188448958	2
0	21000	3142.304188448958	1
0	21003	3142.566046685042	0
0	21072	3151.973390509268	1
0	21073	3152.183874029981	0
0	21170	3165.627939299713	1
0	21171	3165.680365712992	0
0	21233	3174.268372594996	1
0	21234	3174.471979834898	0
0	21289	3180.769673807567	1
0	21290	3181.078440517043	0
0	21513	3212.272372040307	1
0	21514	3212.577457280316	0
0	21716	3239.639385602947	1
0	21717	3239.875919250337	0
0	21765	3245.509115021056	1
0	21766	3245.69819768816	0
0	21772	3245.765573051893	1
0	21774	3246.050335368098	2
0	21775	3246.050335368098	3
0	21776	3246.455697268824	2
0	21777	3246.455697268824	1
0	21780	3246.509115021056	0
0	21912	3267.601973193037	1
0	21914	3268.029642931576	2
0	21915	3268.029642931576	3
0	21916	3268.038437265982	2
0	21917	3268.038437265982	1
0	21920	3268.15749014537	0
0	21926	3268.446277100866	1
0	21927	3268.601973193037	0
0	22290	3328.120383529931	1
0	22291	3328.422775741575	0
0	22402	3343.622493318374	1
0	22403	3343.840375898097	0
0	22409	3344.256251771612	1
0	22410	3344.471237942356	0
0	22486	3353.799703201205	1
0	22487	3354.193049360664	0
0	22556	3364.6098813578	1
0	22557	3364.665723361519	0
0	22836	3411.084669468203	1
0	22837	3411.181303960763	0
0	23067	3448.822984939349	1
0	23068	3448.922618446036	0
0	23172	3462.389196450063	1
0	23173	3462.704561348267	0
0	23459	3509.025701574554	1
0	23460	3509.112321584062	0
0	23529	3517.060004649578	1
0	23530	3517.405449585694	0
0	23613	3529.332035877891	1
0	23614	3529.630910847204	0
0	23648	3532.357067903372	1
0	23649	3532.520324643697	0
0	23774	3550.682163374991	1
0	23775	3550.815075049705	0
0	23851	3563.266600790883	1
0	23852	3563.917061116142	0
0	23886	3567.063882315141	1
0	23888	3567.303933385826	2
0	23889	3567.303933385826	3
0	23890	3567.845658572401	2
0	23891	3567.845658572401	1
0	23894	3567.946797960115	0
0	23984	3580.078435811131	1
0	23985	3580.410968269033	0
0	23991	3580.603528646899	1
0	23992	3580.754260373119	0
0	23998	3581.046820086924	1
0	23999	3581.078435811131	0
0	24002	3581.229517814097	1
0	24003	3581.229517814097	2
0	24004	3581.410968269033	1
0	24006	3581.603528646899	0
0	24110	3596.32304630171	1
0	24111	3596.517647575571	0
1	0	0	0
1	4	11	0
1	5	11	0
1	11	12.1895771404	0
1	12	12.1895771404	0
1	18	13.709024815093	0
1	19	13.709024815093	0
1	28	15.089249797194	0
1	29	15.089249797194	0
1	35	15.687492071932	0
1	36	15.687492071932	0
1	39	16.452806453803	0
1	40	16.452806453803	0
1	49	18.233791051638	0
1	50	18.233791051638	0
1	53	19.125312944343	0
1	54	19.125312944343	0
1	60	20.909735020709	0
1	61	20.909735020709	0
1	67	22.050625902468	0
1	68	22.050625902468	0
1	74	24.027029133201	0
1	75	24.027029133201	0
1	81	25.114993870878	0
1	82	25.114993870878	0
1	88	26.321699022152	0
1	89	26.321699022152	0
1	95	27.821413869948	0
1	96	27.821413869948	0
1	102	29.36992871038	0
1	103	29.36992871038	0
1	109	30.556896130314	0
1	110	30.556896130314	0
1	116	31.625109192018	0
1	117	31.625109192018	0
1	126	32.694308949252	0
1	127	32.694308949252	0
1	133	32.985046645489	0
1	134	32.985046645489	0
1	137	33.92580793234	0
1	138	33.92580793234	0
1	144	34.947823855073	0
1	145	34.947823855073	0
1	151	36.728269735665	0
1	152	36.728269735665	0
1	161	38.042551133481	0
1	162	38.042551133481	0
1	165	38.339101077246	0
1	166	38.339101077246	0
1	172	40.551089687215	0
1	173	40.551089687215	0
1	179	41.582972380021	0
1	180	41.582972380021	0
1	186	42.595158216898	0
1	187	42.595158216898	0
1	196	43.708342418734	0
1	197	43.708342418734	0
1	200	44.076166640877	0
1	201	44.076166640877	0
1	210	45.519644372651	0
1	211	45.519644372651	0
1	214	45.99003447394	0
1	215	45.99003447394	0
1	224	47.607252006711	0
1	225	47.607252006711	0
1	231	48.490788763685	0
1	232	48.490788763685	0
1	235	49.09363575041	0
1	236	49.09363575041	0
1	245	50.142789259147	0
1	246	50.142789259147	0
1	249	50.406717007733	0
1	250	50.406717007733	0
1	259	51.609164906869	0
1	260	51.609164906869	0
1	266	52.473008618541	0
1	267	52.473008618541	0
1	270	52.96623377289	0
1	271	52.96623377289	0
1	277	54.2218035718	0
1	278	54.2218035718	0
1	284	55.853213650357	0
1	285	55.853213650357	0
1	294	56.861977143251	0
1	295	56.861977143251	0
1	298	57.773677946135	0
1	299	57.773677946135	0
1	308	58.886635187876	0
1	309	58.886635187876	0
1	312	59.404455716092	0
1	313	59.404455716092	0
1	319	60.709113890651	0
1	320	60.709113890651	0
1	326	62.097303710446	0
1	327	62.097303710446	0
1	333	64.511463358746	0
1	334	64.511463358746	0
1	340	65.640528485481	0
1	341	65.640528485481	0
1	347	67.189624636039	0
1	348	67.189624636039	0
1	354	68.410968634388	0
1	355	68.410968634388	0
1	361	70.108852383505	0
1	362	70.108852383505	0
1	371	71.200976664873	0
1	372	71.200976664873	0
1	378	72.121653351491	0
1	379	72.121653351491	0
1	385	72.930622282928	0
1	386	72.930622282928	0
1	392	73.615350315213	0
1	393	73.615350315213	0
1	396	74.307737627102	0
1	397	74.307737627102	0
1	406	75.443216695055	0
1	407	75.443216695055	0
1	410	76.132145021244	0
1	411	76.132145021244	0
1	417	77.288073090758	0
1	418	77.288073090758	0
1	424	78.729030743904	0
1	425	78.729030743904	0
1	431	79.930329209347	0
1	432	79.930329209347	0
1	441	81.193777181541	0
1	442	81.193777181541	0
1	448	82.08790452129	0
1	449	82.08790452129	0
1	452	83.002241596547	0
1	453	83.002241596547	0
1	462	84.398853367256	0
1	463	84.398853367256	0
1	466	84.549107145305	0
1	467	84.549107145305	0
1	473	86.041573010868	0
1	474	86.041573010868	0
1	483	87.073067912017	0
1	484	87.073067912017	0
1	487	88.063119779984	0
1	488	88.063119779984	0
1	494	89.771855213669	0
1	495	89.771855213669	0
1	501	91.482901637866	0
1	502	91.482901637866	0
1	508	92.55541325467	0
1	509	92.55541325467	0
1	518	93.857124497792	0
1	519	93.857124497792	0
1	525	94.520290265763	0
1	526	94.520290265763	0
1	529	95.248366767301	0
1	530	95.248366767301	0
1	536	96.635622895759	0
1	537	96.635622895759	0
1	543	97.869714987574	0
1	544	97.869714987574	0
1	553	99.275660460206	0
1	554	99.275660460206	0
1	560	100.039948608631	0
1	561	100.039948608631	0
1	564	100.410634932063	0
1	565	100.410634932063	0
1	574	102.221321237245	0
1	575	102.221321237245	0
1	578	103.050911609578	0
1	579	103.050911609578	0
1	588	104.177623726048	0
1	589	104.177623726048	0
1	592	104.727471544967	0
1	593	104.727471544967	0
1	602	106.150097298696	0
1	603	106.150097298696	0
1	606	106.780877504545	0
1	607	106.780877504545	0
1	613	108.415862757467	0
1	614	108.415862757467	0
1	620	109.456258222025	0
1	621	109.456258222025	0
1	627	110.563347562954	0
1	628	110.563347562954	0
1	634	112.004569512874	0
1	635	112.004569512874	0
1	647	113.135069736869	1
1	648	113.135069736869	1
1	654	113.754795273919	1
1	655	113.754795273919	1
1	658	113.860533750977	0
1	660	114.135069736869	0
1	662	114.464235459973	0
1	667	114.754795273919	0
1	669	115.545262490301	0
1	670	115.545262490301	0
1	676	117.586933542203	0
1	677	117.586933542203	0
1	683	118.604429662284	0
1	684	118.604429662284	0
1	693	119.613029473231	0
1	694	119.613029473231	0
1	697	120.246968018205	0
1	698	120.246968018205	0
1	707	121.366732288144	0
1	708	121.366732288144	0
1	714	122.094857579174	0
1	715	122.094857579174	0
1	718	122.590794878713	0
1	719	122.590794878713	0
1	725	124.270308591901	0
1	726	124.270308591901	0
1	732	125.417688642354	0
1	733	125.417688642354	0
1	742	127.033881987028	0
1	743	127.033881987028	0
1	752	127.513092583662	1
1	753	127.513092583662	1
1	759	128.17138299548	1
1	760	128.17138299548	1
1	763	128.36163001299	0
1	765	128.513092583662	0
1	767	129.12516760836	0
1	769	129.17138299548	0
1	780	130.302978706177	1
1	781	130.302978706177	1
1	787	131.083282723012	1
1	788	131.083282723012	1
1	791	131.256020206045	0
1	793	131.302978706177	0
1	795	131.393177354824	0
1	797	132.083282723012	0
1	805	133.321086824601	0
1	806	133.321086824601	0
1	812	134.127260231971	0
1	813	134.127260231971	0
1	816	134.656009400523	0
1	817	134.656009400523	0
1	826	136.204614309512	0
1	827	136.204614309512	0
1	830	136.966551608274	0
1	831	136.966551608274	0
1	840	138.032401217036	0
1	841	138.032401217036	0
1	844	138.551979957781	0
1	845	138.551979957781	0
1	851	139.758115243827	0
1	852	139.758115243827	0
1	858	141.585467267298	0
1	859	141.585467267298	0
1	865	143.067088903381	0
1	866	143.067088903381	0
1	875	144.884709990339	0
1	876	144.884709990339	0
1	882	145.870761927206	0
1	883	145.870761927206	0
1	886	146.683001877355	0
1	887	146.683001877355	0
1	896	147.816640677964	0
1	897	147.816640677964	0
1	900	148.417609295691	0
1	901	148.417609295691	0
1	907	150.792002855777	0
1	908	150.792002855777	0
1	917	152.151683712472	0
1	918	152.151683712472	0
1	921	153.083516383179	0
1	922	153.083516383179	0
1	928	154.433351624539	0
1	929	154.433351624539	0
1	935	155.500122689251	0
1	936	155.500122689251	0
1	942	157.003423023818	0
1	943	157.003423023818	0
1	949	158.207370531445	0
1	950	158.207370531445	0
1	956	159.695660002294	0
1	957	159.695660002294	0
1	966	160.819961159174	0
1	967	160.819961159174	0
1	973	161.609534933872	0
1	974	161.609534933872	0
1	977	162.050615761284	0
1	978	162.050615761284	0
1	984	163.468848629379	0
1	985	163.468848629379	0
1	994	164.716447242045	0
1	995	164.716447242045	0
1	1001	165.57103599997	0
1	1002	165.57103599997	0
1	1008	166.194268650334	0
1	1009	166.194268650334	0
1	1012	166.645927620495	0
1	1013	166.645927620495	0
1	1019	167.796813108366	0
1	1020	167.796813108366	0
1	1026	168.927257500766	0
1	1027	168.927257500766	0
1	1033	170.357587866869	0
1	1034	170.357587866869	0
1	1040	171.702416370417	0
1	1041	171.702416370417	0
1	1050	172.927058988517	0
1	1051	172.927058988517	0
1	1054	173.667305024006	0
1	1055	173.667305024006	0
1	1061	175.067327624311	0
1	1062	175.067327624311	0
1	1074	176.080151645887	1
1	1075	176.080151645887	1
1	1078	176.155939879209	0
1	1079	176.155939879209	0
1	1082	176.158250875902	0
1	1093	177.080151645887	1
1	1098	177.276632607808	1
1	1099	177.276632607808	1
1	1102	177.320437807414	1
1	1103	177.320437807414	1
1	1109	178.080151645887	1
1	1111	178.276632607808	1
1	1112	178.276632607808	0
1	1115	178.320437807414	0
1	1117	178.633672469596	0
1	1122	179.080151645887	0
1	1124	179.808896200804	0
1	1125	179.808896200804	0
1	1134	180.943384095577	0
1	1135	180.943384095577	0
1	1141	181.39562238803	0
1	1142	181.39562238803	0
1	1148	182.190508121236	0
1	1149	182.190508121236	0
1	1155	182.735049310712	0
1	1156	182.735049310712	0
1	1159	183.366278021862	0
1	1160	183.366278021862	0
1	1166	184.623648043638	0
1	1167	184.623648043638	0
1	1173	185.688256572971	0
1	1174	185.688256572971	0
1	1180	187.316241619271	0
1	1181	187.316241619271	0
1	1187	188.57091929721	0
1	1188	188.57091929721	0
1	1197	189.805749190765	0
1	1198	189.805749190765	0
1	1201	190.529936302519	0
1	1202	190.529936302519	0
1	1214	191.877514148385	1
1	1215	191.877514148385	1
1	1218	192.545792530129	0
1	1219	192.545792530129	0
1	1222	192.781666987446	0
1	1224	192.877514148385	0
1	1232	194.418250769029	0
1	1233	194.418250769029	0
1	1236	195.152236781708	0
1	1237	195.152236781708	0
1	1246	196.804018633748	0
1	1247	196.804018633748	0
1	1250	197.31040918089	0
1	1251	197.31040918089	0
1	1260	198.497701483532	0
1	1261	198.497701483532	0
1	1264	199.216982598965	0
1	1265	199.216982598965	0
1	1274	200.383311455282	0
1	1275	200.383311455282	0
1	1278	201.166758668933	0
1	1279	201.166758668933	0
1	1291	202.593409168262	1
1	1292	202.593409168262	1
1	1295	203.059739148414	0
1	1296	203.059739148414	0
1	1299	203.283517733225	0
1	1304	203.593409168262	0
1	1309	204.504449180614	0
1	1310	204.504449180614	0
1	1313	205.322876393661	0
1	1314	205.322876393661	0
1	1323	206.869926058387	0
1	1324	206.869926058387	0
1	1327	207.3081079224	0
1	1328	207.3081079224	0
1	1337	208.59618062609	0
1	1338	208.59618062609	0
1	1344	209.350184434475	0
1	1345	209.350184434475	0
1	1348	209.868413764408	0
1	1349	209.868413764408	0
1	1358	211.38996004552	0
1	1359	211.38996004552	0
1	1362	211.565282376076	0
1	1363	211.565282376076	0
1	1372	212.569419534366	0
1	1373	212.569419534366	0
1	1379	213.402850055753	0
1	1380	213.402850055753	0
1	1383	213.916415327765	0
1	1384	213.916415327765	0
1	1393	215.306659240376	0
1	1394	215.306659240376	0
1	1400	215.816636252199	0
1	1401	215.816636252199	0
1	1404	216.381440538759	0
1	1405	216.381440538759	0
1	1411	218.126390708168	0
1	1412	218.126390708168	0
1	1421	219.438785014281	0
1	1422	219.438785014281	0
1	1425	220.120154857618	0
1	1426	220.120154857618	0
1	1435	221.856423652197	0
1	1436	221.856423652197	0
1	1442	222.69799207365	0
1	1443	222.69799207365	0
1	1446	223.409365929393	0
1	1447	223.409365929393	0
1	1456	224.640718739515	0
1	1457	224.640718739515	0
1	1460	225.278396245944	0
1	1461	225.278396245944	0
1	1467	226.733413165576	0
1	1468	226.733413165576	0
1	1474	228.729691663819	0
1	1475	228.729691663819	0
1	1484	229.771613129753	0
1	1485	229.771613129753	0
1	1488	230.273274174197	0
1	1489	230.273274174197	0
1	1498	232.441397968417	0
1	1499	232.441397968417	0
1	1502	233.063592071587	0
1	1503	233.063592071587	0
1	1512	234.344256767166	0
1	1513	234.344256767166	0
1	1516	235.105325143636	0
1	1517	235.105325143636	0
1	1523	237.117713677944	0
1	1524	237.117713677944	0
1	1533	238.207297486508	0
1	1534	238.207297486508	0
1	1537	239.082012625115	0
1	1538	239.082012625115	0
1	1544	240.100991826524	0
1	1545	240.100991826524	0
1	1551	241.271604244981	0
1	1552	241.271604244981	0
1	1561	242.315358348239	0
1	1562	242.315358348239	0
1	1568	242.981123256685	0
1	1569	242.981123256685	0
1	1572	243.551995472321	0
1	1573	243.551995472321	0
1	1582	244.589301246976	0
1	1583	244.589301246976	0
1	1589	245.358225017158	0
1	1590	245.358225017158	0
1	1596	246.100247292753	0
1	1597	246.100247292753	0
1	1600	246.485821597737	0
1	1601	246.485821597737	0
1	1610	248.301059085983	0
1	1611	248.301059085983	0
1	1614	249.179165121238	0
1	1615	249.179165121238	0
1	1621	251.016907750446	0
1	1622	251.016907750446	0
1	1628	252.336138703796	0
1	1629	252.336138703796	0
1	1635	253.580882531113	0
1	1636	253.580882531113	0
1	1645	254.887795152717	0
1	1646	254.887795152717	0
1	1652	255.685786050931	0
1	1653	255.685786050931	0
1	1656	256.214175445819	0
1	1657	256.214175445819	0
1	1663	257.430655886023	0
1	1664	257.430655886023	0
1	1673	258.922841403322	0
1	1674	258.922841403322	0
1	1677	259.377758115065	0
1	1678	259.377758115065	0
1	1687	260.969474468669	0
1	1688	260.969474468669	0
1	1691	261.742386984375	0
1	1692	261.742386984375	0
1	1698	262.932650072557	0
1	1699	262.932650072557	0
1	1708	264.502577591526	0
1	1709	264.502577591526	0
1	1712	265.388788322568	0
1	1713	265.388788322568	0
1	1722	266.400334412839	0
1	1723	266.400334412839	0
1	1729	266.958900405032	0
1	1730	266.958900405032	0
1	1733	267.785428255098	0
1	1734	267.785428255098	0
1	1743	269.730196038821	0
1	1744	269.730196038821	0
1	1747	270.286402064404	0
1	1748	270.286402064404	0
1	1757	271.740754038443	0
1	1758	271.740754038443	0
1	1761	272.46447045538	0
1	1762	272.46447045538	0
1	1771	274.188071344308	0
1	1772	274.188071344308	0
1	1775	275.106862603546	0
1	1776	275.106862603546	0
1	1782	276.258031255806	0
1	1783	276.258031255806	0