version 3
run MMc-11-20221127-11:38:40-7588
attr configname MMc
attr datetime 20221127-11:38:40
attr datetimef 20221127-113840
attr experiment MMc
attr inifile omnetpp.ini
attr iterationvars "$mean=uniform(0.5s, 1.5s), $dev=0.5*(uniform(0.5s, 1.5s)), $time=1.0, $num=5, $0=33434, $1=56673, $2=23567"
attr iterationvarsd mean=uniform(0.5s,_1.5s)/dev=0.5#2a(uniform(0.5s,_1.5s))/time=1.0/num=5/33434/56673/23567
attr iterationvarsf mean=uniform(0.5s,_1.5s),dev=0.5#2a(uniform(0.5s,_1.5s)),time=1.0,num=5,33434,56673,23567-
attr measurement "$mean=uniform(0.5s, 1.5s), $dev=0.5*(uniform(0.5s, 1.5s)), $time=1.0, $num=5, $0=33434, $1=56673, $2=23567"
attr network MMc
attr processid 7588
attr repetition 3
attr replication #3
attr resultdir results
attr runnumber 11
attr seedset 11
itervar dev "0.5*(uniform(0.5s, 1.5s))"
itervar mean "uniform(0.5s, 1.5s)"
itervar num 5
itervar time 1.0
config description "MMc module"
config network MMc
config MMc.source.interArrivalTime "truncnormal(uniform(0.5s, 1.5s), 0.5*(uniform(0.5s, 1.5s)))"
config MMc.mmc.serviceTime 1.0s
config MMc.mmc.c 5
config MMc.mmc.capacity 10000
config record-eventlog false
config **.scalar-recording true
config **.vector-recording true
config repeat 4
config seed-1-mt 33434
config seed-2-mt 56673
config seed-3-mt 23567
config output-vector-file MMc-5-1.0-results/3.vec
config output-scalar-file MMc-5-1.0-results/3.sca

vector 0 MMc.mmc queueLength:vector ETV
attr interpolationmode none
attr recordingmode vector
attr title "queue length"
vector 1 MMc.mmc util:vector ETV
attr interpolationmode none
attr recordingmode vector
attr title resources
0	0	0	0
0	51	17.367861627371	1
0	52	17.798563086082	0
0	163	30.064734415182	1
0	164	30.718284472944	0
0	191	33.652476129213	1
0	192	33.826200411192	0
0	289	47.415737076263	1
0	290	47.461293450612	0
0	450	73.298351393473	1
0	451	73.751930789957	0
0	457	73.896475789291	1
0	458	74.088380646525	0
0	597	95.343135340186	1
0	598	95.507900389018	0
0	996	158.567011456879	1
0	997	158.730164325235	0
0	1017	160.358097186483	1
0	1018	160.582326788701	0
0	1024	160.82028657721	1
0	1025	161.286696504238	0
0	1045	162.945457689898	1
0	1046	162.9529585551	0
0	1052	163.676647247651	1
0	1053	163.889955143527	0
0	1073	165.664171463952	1
0	1074	165.829584484225	0
0	1080	166.174912080463	1
0	1081	166.41181775562	0
0	1311	202.256227136238	1
0	1312	202.58777600845	0
0	1318	202.725903363345	1
0	1319	203.048369467387	0
0	1402	215.186467610315	1
0	1403	215.399879335185	0
0	1423	217.135970759183	1
0	1424	217.966031911313	0
0	1535	234.717193473894	1
0	1536	234.9222526552	0
0	1745	267.376515015863	1
0	1746	267.411065191314	0
0	1878	285.848559236588	1
0	1879	285.974332649894	0
0	1934	294.580063250562	1
0	1935	294.694658302741	0
0	1955	296.252354248875	1
0	1956	296.48874108819	0
0	2004	302.759340052378	1
0	2006	303.021724185188	2
0	2007	303.021724185188	3
0	2008	303.115217083165	2
0	2009	303.115217083165	1
0	2012	303.29389671899	0
0	2193	331.335296199308	1
0	2194	331.472347742682	0
0	2312	349.750376789508	1
0	2313	349.841991350657	0
0	2319	350.282037287402	1
0	2320	350.734547097608	0
0	2337	351.685096367328	1
0	2338	351.685096367328	2
0	2339	351.734547097608	1
0	2341	352.36138994515	0
0	2438	365.396802487497	1
0	2439	365.485674858338	0
0	2620	391.341444191605	1
0	2621	391.513485343881	0
0	3138	473.321411287132	1
0	3140	473.752153750157	2
0	3141	473.752153750157	3
0	3142	473.776212035207	2
0	3143	473.776212035207	1
0	3146	473.965365998367	0
0	3180	477.235467707614	1
0	3181	477.767496243441	0
0	3236	484.368718085768	1
0	3237	484.504389383205	0
0	3243	484.992649404052	1
0	3244	485.290517843419	0
0	3313	495.355217802952	1
0	3314	495.700824434939	0
0	3320	496.353040179237	1
0	3321	496.355151254474	0
0	3418	510.214658711185	1
0	3419	510.261932501968	0
0	3446	512.802446615328	1
0	3447	512.920913290755	0
0	3530	528.028823741687	1
0	3531	528.157713883115	0
0	4055	607.658527909654	1
0	4056	607.711491383825	0
0	4062	607.952941829658	1
0	4063	608.150507692115	0
0	4125	618.603218268053	1
0	4126	618.93974125045	0
0	4244	638.419904652446	1
0	4245	638.621009981401	0
0	4251	638.910585886835	1
0	4252	639.28038888696	0
0	4265	639.664262266998	1
0	4266	639.910585886835	0
0	4426	661.764279854059	1
0	4427	661.991420246113	0
0	4671	697.628521101748	1
0	4672	698.053422622315	0
0	4818	720.90653338553	1
0	4819	721.196936782818	0
0	5203	780.234974150681	1
0	5204	780.653429418807	0
0	5231	783.028619334203	1
0	5232	783.175571299036	0
0	5273	786.961615073122	1
0	5275	787.500834153273	2
0	5276	787.500834153273	3
0	5277	787.619399768136	2
0	5278	787.619399768136	1
0	5281	787.896019232115	0
0	5322	794.362258438316	1
0	5323	794.492014247229	0
0	5392	802.938048668078	1
0	5393	802.971172134232	0
0	5434	810.92136555283	1
0	5435	811.196198848648	0
0	5602	835.213480662933	1
0	5603	835.583490812412	0
0	5609	836.137237351064	1
0	5610	836.155183703157	0
0	5651	843.274264379527	1
0	5652	843.62206005979	0
0	5945	885.198495816092	1
0	5946	885.327766231324	0
0	5973	888.839281139885	1
0	5974	889.02619391696	0
0	6015	893.821173528478	1
0	6016	894.021313996303	0
0	6071	902.722138325949	1
0	6072	902.770940189183	0
0	6323	945.898712336162	1
0	6324	945.97233787	0
0	6379	951.829384756307	1
0	6380	952.023978542812	0
0	6575	985.265068314898	1
0	6576	985.271782489729	0
0	6596	986.74600965231	1
0	6597	987.052393311039	0
0	6722	1005.973122100737	1
0	6723	1006.404636014844	0
0	6974	1045.164493299826	1
0	6975	1045.171288935071	0
0	7184	1080.974706211173	1
0	7185	1081.331591609729	0
0	7954	1200.08195680578	1
0	7955	1200.092859107242	0
0	8129	1224.714815341433	1
0	8130	1224.852186492595	0
0	8290	1250.87062833697	1
0	8291	1251.096904388895	0
0	8626	1305.115518228933	1
0	8627	1305.264826732962	0
0	8773	1331.365186632846	1
0	8774	1331.535440096814	0
0	8794	1333.73035255335	1
0	8795	1333.749356541471	0
0	8836	1339.20783837324	1
0	8837	1339.28552547474	0
0	8864	1342.407395797828	1
0	8865	1342.554659678181	0
0	8871	1342.949678667349	1
0	8873	1343.007686118573	2
0	8874	1343.007686118573	3
0	8875	1343.380716873584	2
0	8876	1343.380716873584	1
0	8879	1343.407395797828	0
0	8948	1353.089382960833	1
0	8949	1353.358977396135	0
0	9340	1417.050073705838	1
0	9341	1417.064906624453	0
0	9396	1426.130961222231	1
0	9397	1426.167675011198	0
0	9403	1426.241361771123	1
0	9405	1426.583865909291	2
0	9406	1426.583865909291	3
0	9407	1426.639942280423	2
0	9408	1426.639942280423	1
0	9411	1427.130961222231	0
0	9466	1435.650549349084	1
0	9467	1435.794026465294	0
0	9641	1463.585293908929	1
0	9642	1463.843640522324	0
0	9648	1464.167977167034	1
0	9649	1464.31307493794	0
0	9893	1500.088335942449	1
0	9894	1500.48233950914	0
0	9900	1500.720456180311	1
0	9901	1500.879404325975	0
0	9907	1501.008887110871	1
0	9908	1501.088335942449	0
0	9963	1510.383394957842	1
0	9964	1510.539834886515	0
0	9970	1510.623946154194	1
0	9971	1510.780803052673	0
0	9977	1510.803003018149	1
0	9978	1511.383394957842	0
0	10096	1531.251300718466	1
0	10097	1531.590559139862	0
0	10103	1531.844159679254	1
0	10104	1532.080317657631	0
0	10110	1532.173876724701	1
0	10111	1532.251300718466	0
0	10117	1532.644182217288	1
0	10118	1532.844159679254	0
0	10121	1533.002167548602	1
0	10122	1533.002167548602	2
0	10123	1533.080317657631	1
0	10126	1533.148734000641	2
0	10127	1533.148734000641	3
0	10128	1533.173876724701	2
0	10130	1533.251300718466	1
0	10132	1533.644182217288	0
0	10159	1536.604549437832	1
0	10160	1536.742726779802	0
0	10425	1580.397380021164	1
0	10426	1580.716924644829	0
0	10852	1642.559638640569	1
0	10853	1642.715873888691	0
0	10929	1653.576962633793	1
0	10930	1653.615474905793	0
0	11160	1690.022717971329	1
0	11161	1690.417852244315	0
0	11188	1693.058938792892	1
0	11189	1693.276039116005	0
0	11286	1705.699643471997	1
0	11287	1705.712323777132	0
0	11293	1706.388592966985	1
0	11294	1706.420569476737	0
0	11321	1710.188146373879	1
0	11322	1710.321611286626	0
0	11349	1712.767694403227	1
0	11350	1713.063260611835	0
0	11377	1716.254586170757	1
0	11378	1716.434577840011	0
0	11384	1716.629642248546	1
0	11385	1716.919842350544	0
0	11622	1749.248544348011	1
0	11623	1749.267213387645	0
0	11748	1768.92406231185	1
0	11749	1769.609862166772	0
0	11825	1780.50005590818	1
0	11826	1780.610589890601	0
0	12252	1848.700778431862	1
0	12253	1848.701606757097	0
0	12546	1895.656869288961	1
0	12547	1895.944918406073	0
0	12679	1913.592929242034	1
0	12680	1914.147947347775	0
0	12763	1924.587686241529	1
0	12764	1924.808314106342	0
0	12784	1927.238997391463	1
0	12785	1927.311696149548	0
0	12945	1950.144331667005	1
0	12946	1950.432649090409	0
0	13050	1967.352333215935	1
0	13051	1967.386146696319	0
0	13078	1969.923499335298	1
0	13079	1970.554018953004	0
0	13148	1980.895295873864	1
0	13149	1981.070853528677	0
0	13155	1981.687331533831	1
0	13156	1981.814727912362	0
0	13169	1982.677263711125	1
0	13170	1982.687331533831	0
0	13232	1991.57662088653	1
0	13234	1991.605718083527	2
0	13235	1991.605718083527	3
0	13236	1991.606859794851	2
0	13237	1991.606859794851	1
0	13240	1991.901231027234	0
0	13393	2013.718761631929	1
0	13394	2013.719153885475	0
0	13400	2014.001604577214	1
0	13401	2014.601105834322	0
0	13505	2028.920932227657	1
0	13506	2028.957083393925	0
0	13729	2067.933241372687	1
0	13730	2068.186011945018	0
0	13750	2069.859769102332	1
0	13751	2069.980275269797	0
0	13876	2089.615121044858	1
0	13877	2089.776402182266	0
0	14100	2126.905838309906	1
0	14101	2127.00468901689	0
0	14107	2127.5245735332	1
0	14108	2127.871660941937	0
0	14282	2152.733924383971	1
0	14283	2153.101161606182	0
0	14492	2180.832902017126	1
0	14493	2181.060212936538	0
0	14597	2194.869755166702	1
0	14598	2194.94140313759	0
0	14625	2198.990429664989	1
0	14626	2199.009961742536	0
0	14737	2213.77915812685	1
0	14738	2214.047379325344	0
0	14814	2226.061514168483	1
0	14815	2226.301088509797	0
0	14821	2226.347941392723	1
0	14822	2226.882116919036	0
0	14968	2245.649648770088	1
0	14969	2246.046507037094	0
0	14975	2246.490873215979	1
0	14976	2246.543876942766	0
0	15038	2256.873757120149	1
0	15039	2257.02490382826	0
0	15087	2262.505414002849	1
0	15088	2262.748135718661	0
0	15213	2281.77928353263	1
0	15215	2281.990789252586	2
0	15216	2281.990789252586	3
0	15217	2282.235196309427	2
0	15218	2282.235196309427	1
0	15221	2282.586623682045	0
0	15332	2299.789178575705	1
0	15333	2299.904514625397	0
0	15458	2319.485804777522	1
0	15459	2319.801552285856	0
0	15563	2335.639720342857	1
0	15564	2335.808760796552	0
0	15717	2359.19584896766	1
0	15718	2359.200474921041	0
0	15759	2363.434946878887	1
0	15760	2363.669740995244	0
0	15766	2363.932117430952	1
0	15767	2364.105866295942	0
0	16011	2395.607659991249	1
0	16012	2395.714079143545	0
0	16487	2467.050513448895	1
0	16488	2467.370427445113	0
0	16676	2493.365702192204	1
0	16677	2493.37608506172	0
0	16683	2494.111383926852	1
0	16684	2494.119786067386	0
0	16816	2511.540149414681	1
0	16817	2511.66647678256	0
0	16830	2512.21221936822	1
0	16831	2512.540149414681	0
0	16837	2512.940813344445	1
0	16838	2512.978493368331	0
0	16900	2521.008568559146	1
0	16901	2521.320273381584	0
0	16907	2521.750451446753	1
0	16908	2521.898627804118	0
0	16935	2525.497355989204	1
0	16936	2525.561039702097	0
0	16942	2526.025354312548	1
0	16943	2526.473100947667	0
0	17019	2535.932291171659	1
0	17020	2536.243037229796	0
0	17026	2536.624117875262	1
0	17027	2536.876395811464	0
0	17033	2536.914569097606	1
0	17034	2536.932291171659	0
0	17061	2539.726261099685	1
0	17062	2540.288792425843	0
0	17110	2547.356029892497	1
0	17111	2547.64104563959	0
0	17117	2547.986269492018	1
0	17118	2548.020002987417	0
0	17383	2593.666100203068	1
0	17384	2593.77039263315	0
0	17663	2637.917509105369	1
0	17664	2638.535161063029	0
0	17950	2688.780215002627	1
0	17951	2688.824490149815	0
0	18034	2701.639465338602	1
0	18035	2702.123870976856	0
0	18258	2737.292717859853	1
0	18259	2737.332717202942	0
0	18265	2737.36963309179	1
0	18266	2738.011085951428	0
0	18335	2751.091458242911	1
0	18336	2751.102179141644	0
0	18678	2807.985932599481	1
0	18679	2808.04914428381	0
0	18797	2825.257039269712	1
0	18798	2825.311512455359	0
0	18979	2851.506064671487	1
0	18980	2851.674788711874	0
0	19063	2863.567307857682	1
0	19065	2863.951897418101	2
0	19066	2863.951897418101	3
0	19068	2864.145770520889	4
0	19069	2864.145770520889	5
0	19070	2864.222295754915	4
0	19071	2864.222295754915	3
0	19075	2864.237430338136	4
0	19076	2864.237430338136	5
0	19077	2864.32242974214	4
0	19078	2864.32242974214	3
0	19081	2864.567307857682	2
0	19083	2865.222295754915	1
0	19084	2865.222295754915	0
0	19105	2866.83991663597	1
0	19106	2866.915105026453	0
0	19224	2883.927535854365	1
0	19225	2883.988388217252	0
0	19287	2891.859458010954	1
0	19288	2892.112664712323	0
0	19462	2918.087102834166	1
0	19463	2918.213150499593	0
0	19469	2918.659405952166	1
0	19470	2918.853853738929	0
0	19476	2918.936770610094	1
0	19477	2919.087102834166	0
0	19483	2919.318170554902	1
0	19484	2919.659405952166	0
0	19679	2950.743451412274	1
0	19681	2950.843413168243	2
0	19682	2950.843413168243	3
0	19683	2951.127984717996	2
0	19684	2951.127984717996	1
0	19687	2951.298339710366	0
0	19693	2951.543776697607	1
0	19694	2951.743451412274	0
0	19805	2969.303547236622	1
0	19806	2969.490676223997	0
0	19917	2982.583344995796	1
0	19919	2983.082139034003	2
0	19920	2983.082139034003	3
0	19921	2983.190141325271	2
0	19922	2983.190141325271	1
0	19925	2983.448109844986	0
0	20043	3001.207514974158	1
0	20044	3001.68667440919	0
0	20358	3047.442997489084	1
0	20359	3047.684062040288	0
0	20666	3098.306020262179	1
0	20667	3098.833283908022	0
0	20743	3109.659835449145	1
0	20744	3109.975203993706	0
0	20883	3131.903029726295	1
0	20884	3131.998905184394	0
0	20932	3138.100445540505	1
0	20933	3138.204046743509	0
0	20981	3142.987233358165	1
0	20982	3143.359264688549	0
0	21086	3159.912061976665	1
0	21087	3160.108624883239	0
0	21093	3160.231989039945	1
0	21094	3160.494734404438	0
0	21114	3162.184707474641	1
0	21115	3162.401237710231	0
0	21212	3176.332211271186	1
0	21214	3176.3377432088	2
0	21215	3176.3377432088	3
0	21216	3176.72094763476	2
0	21217	3176.72094763476	1
0	21221	3177.155661201399	2
0	21222	3177.155661201399	3
0	21223	3177.195830271536	2
0	21224	3177.195830271536	1
0	21227	3177.332211271186	0
0	21443	3212.041651489469	1
0	21444	3212.154021047388	0
0	21464	3213.980194157707	1
0	21465	3214.323629426588	0
0	21884	3280.205091594403	1
0	21885	3280.753345243379	0
0	21961	3293.04818973047	1
0	21962	3293.510647803472	0
0	21982	3294.680791140718	1
0	21983	3294.786513697545	0
0	22234	3333.872834837166	1
0	22235	3334.127323436133	0
0	22514	3378.875916355746	1
0	22515	3378.887761118181	0
0	22843	3433.424655140133	1
0	22844	3433.828064688169	0
0	22948	3446.384734033209	1
0	22949	3446.395788414655	0
0	22955	3446.665369894771	1
0	22956	3447.365780254583	0
0	22962	3447.371492533257	1
0	22963	3447.384734033209	0
0	23074	3465.382152040176	1
0	23075	3465.408435114068	0
0	23109	3470.870704615008	1
0	23110	3470.91326174101	0
0	23130	3472.870293906072	1
0	23131	3472.996126377532	0
0	23333	3502.142633343813	1
0	23334	3502.17892142809	0
0	23410	3514.849317905861	1
0	23411	3515.137401289862	0
0	23613	3545.904548586278	1
0	23614	3545.999779082699	0
0	23844	3582.94288461232	1
0	23845	3583.037144408051	0
0	23928	3595.172459755505	1
0	23930	3596.008462818599	2
0	23931	3596.008462818599	3
0	23932	3596.031731908036	2
0	23933	3596.031731908036	1
0	23936	3596.11457081093	0
1	0	0	0
1	7	11	0
1	8	11	0
1	11	11.651496891345	0
1	12	11.651496891345	0
1	21	13.113581315404	0
1	22	13.113581315404	0
1	28	14.086807225885	0
1	29	14.086807225885	0
1	32	14.971334590476	0
1	33	14.971334590476	0
1	42	16.857954128459	0
1	43	16.857954128459	0
1	52	17.798563086082	1
1	53	17.798563086082	1
1	56	18.11208384594	0
1	57	18.11208384594	0
1	63	18.367861627371	0
1	65	18.798563086082	0
1	67	19.253643023815	0
1	68	19.253643023815	0
1	77	20.440015340735	0
1	78	20.440015340735	0
1	84	20.586902493258	0
1	85	20.586902493258	0
1	91	21.517634839337	0
1	92	21.517634839337	0
1	98	22.289616424235	0
1	99	22.289616424235	0
1	102	22.644845837213	0
1	103	22.644845837213	0
1	109	23.905100219026	0
1	110	23.905100219026	0
1	119	25.520535544327	0
1	120	25.520535544327	0
1	126	26.262109574108	0
1	127	26.262109574108	0
1	133	27.098753000901	0
1	134	27.098753000901	0
1	137	27.609537665544	0
1	138	27.609537665544	0
1	147	29.062991956116	0
1	148	29.062991956116	0
1	154	29.796419394204	0
1	155	29.796419394204	0
1	164	30.718284472944	1
1	165	30.718284472944	1
1	168	30.955338511604	0
1	169	30.955338511604	0
1	172	31.064734415182	0
1	174	31.718284472944	0
1	182	32.996137829603	0
1	183	32.996137829603	0
1	192	33.826200411192	1
1	193	33.826200411192	1
1	196	34.154779696474	0
1	197	34.154779696474	0
1	200	34.652476129213	0
1	202	34.826200411192	0
1	210	36.042414981301	0
1	211	36.042414981301	0
1	214	36.643600714263	0
1	215	36.643600714263	0
1	221	37.983355833066	0
1	222	37.983355833066	0
1	228	39.271200583295	0
1	229	39.271200583295	0
1	235	40.300346674657	0
1	236	40.300346674657	0
1	242	41.664515229725	0
1	243	41.664515229725	0
1	249	43.029203598509	0
1	250	43.029203598509	0
1	256	44.03443773301	0
1	257	44.03443773301	0
1	266	45.273249025728	0
1	267	45.273249025728	0
1	273	46.056424806297	0
1	274	46.056424806297	0
1	280	46.670016900598	0
1	281	46.670016900598	0
1	290	47.461293450612	1
1	291	47.461293450612	1
1	294	47.858114613531	0
1	295	47.858114613531	0
1	301	48.415737076263	0
1	303	48.461293450612	0
1	305	49.008610826047	0
1	306	49.008610826047	0
1	312	51.000747139993	0
1	313	51.000747139993	0
1	319	52.328108038263	0
1	320	52.328108038263	0
1	326	53.634232854695	0
1	327	53.634232854695	0
1	333	55.346423084143	0
1	334	55.346423084143	0
1	340	56.659186351974	0
1	341	56.659186351974	0
1	347	58.059761133723	0
1	348	58.059761133723	0
1	354	59.11654793655	0
1	355	59.11654793655	0
1	361	60.846171168355	0
1	362	60.846171168355	0
1	371	61.910903344413	0
1	372	61.910903344413	0
1	378	62.335412660753	0
1	379	62.335412660753	0
1	385	63.1101514152	0
1	386	63.1101514152	0
1	392	63.612778453087	0
1	393	63.612778453087	0
1	396	64.600388734481	0
1	397	64.600388734481	0
1	403	65.774770017763	0
1	404	65.774770017763	0
1	413	66.939242435012	0
1	414	66.939242435012	0
1	417	67.708400613604	0
1	418	67.708400613604	0
1	424	69.029535061043	0
1	425	69.029535061043	0
1	431	70.957490541226	0
1	432	70.957490541226	0
1	438	72.397240799597	0
1	439	72.397240799597	0
1	451	73.751930789957	1
1	452	73.751930789957	1
1	458	74.088380646525	1
1	459	74.088380646525	1
1	462	74.298351393473	0
1	464	74.751930789957	0
1	466	74.896475789291	0
1	468	75.088380646525	0
1	473	76.307188606797	0
1	474	76.307188606797	0
1	483	77.86952358882	0
1	484	77.86952358882	0
1	487	78.319297593465	0
1	488	78.319297593465	0
1	497	80.096021372607	0
1	498	80.096021372607	0
1	501	80.677003751499	0
1	502	80.677003751499	0
1	511	81.685379740995	0
1	512	81.685379740995	0
1	515	82.512079018745	0
1	516	82.512079018745	0
1	522	85.0197751027	0
1	523	85.0197751027	0
1	529	86.852326290788	0
1	530	86.852326290788	0
1	536	88.156485929589	0
1	537	88.156485929589	0
1	546	89.320271193605	0
1	547	89.320271193605	0
1	550	89.695069555015	0
1	551	89.695069555015	0
1	557	91.05593967622	0
1	558	91.05593967622	0
1	567	92.086156458375	0
1	568	92.086156458375	0
1	574	92.851742828748	0
1	575	92.851742828748	0
1	581	93.33601310603	0
1	582	93.33601310603	0
1	585	93.867067868034	0
1	586	93.867067868034	0
1	598	95.507900389018	1
1	599	95.507900389018	1
1	602	95.526250114665	0
1	603	95.526250114665	0
1	606	96.343135340186	0
1	608	96.507900389018	0
1	616	98.134463887038	0
1	617	98.134463887038	0
1	620	98.675240316888	0
1	621	98.675240316888	0
1	627	99.957493533808	0
1	628	99.957493533808	0
1	634	101.466866780133	0
1	635	101.466866780133	0
1	644	102.642980472626	0
1	645	102.642980472626	0
1	648	103.165454536215	0
1	649	103.165454536215	0
1	655	104.90438192155	0
1	656	104.90438192155	0
1	662	106.031086503475	0
1	663	106.031086503475	0
1	672	107.2746439596	0
1	673	107.2746439596	0
1	676	108.228146812619	0
1	677	108.228146812619	0
1	686	109.506528498607	0
1	687	109.506528498607	0
1	693	110.281796346446	0
1	694	110.281796346446	0
1	697	111.082671298902	0
1	698	111.082671298902	0
1	707	112.619890411541	0
1	708	112.619890411541	0
1	711	113.058657169397	0
1	712	113.058657169397	0
1	721	115.071548629911	0
1	722	115.071548629911	0
1	728	115.349769277062	0
1	729	115.349769277062	0
1	732	116.331064979569	0
1	733	116.331064979569	0
1	742	117.512456932407	0
1	743	117.512456932407	0
1	746	118.226338415639	0
1	747	118.226338415639	0
1	756	120.191606235715	0
1	757	120.191606235715	0
1	760	120.387748529163	0
1	761	120.387748529163	0
1	770	122.059002816715	0
1	771	122.059002816715	0
1	774	122.836038779095	0
1	775	122.836038779095	0
1	784	124.078033115008	0
1	785	124.078033115008	0
1	788	124.246783187939	0
1	789	124.246783187939	0
1	798	125.989582839881	0
1	799	125.989582839881	0
1	802	126.72310848519	0
1	803	126.72310848519	0
1	812	127.741245407039	0
1	813	127.741245407039	0
1	816	128.127993306703	0
1	817	128.127993306703	0
1	826	129.589524937283	0
1	827	129.589524937283	0
1	833	130.049530798138	0
1	834	130.049530798138	0
1	837	130.865662716644	0
1	838	130.865662716644	0
1	844	132.580254393587	0
1	845	132.580254393587	0
1	851	133.735841555943	0
1	852	133.735841555943	0
1	861	135.457054245518	0
1	862	135.457054245518	0
1	865	136.375299295414	0
1	866	136.375299295414	0
1	875	137.790301280334	0
1	876	137.790301280334	0
1	879	138.769833669158	0
1	880	138.769833669158	0
1	886	140.019343456308	0
1	887	140.019343456308	0
1	893	141.618743848984	0
1	894	141.618743848984	0
1	900	143.044902048471	0
1	901	143.044902048471	0
1	907	144.656188196454	0
1	908	144.656188196454	0
1	914	145.755679152347	0
1	915	145.755679152347	0
1	924	147.251093452494	0
1	925	147.251093452494	0
1	928	147.312527373992	0
1	929	147.312527373992	0
1	935	148.74313641606	0
1	936	148.74313641606	0
1	942	150.315841309055	0
1	943	150.315841309055	0
1	949	151.726599802026	0
1	950	151.726599802026	0
1	956	153.669755073069	0
1	957	153.669755073069	0
1	966	155.55705114058	0
1	967	155.55705114058	0
1	970	155.668391211694	0
1	971	155.668391211694	0
1	977	156.724952315644	0
1	978	156.724952315644	0
1	987	158.007583655145	0
1	988	158.007583655145	0
1	997	158.730164325235	1
1	998	158.730164325235	1
1	1001	159.257260688498	0
1	1002	159.257260688498	0
1	1005	159.567011456879	0
1	1010	159.730164325235	0
1	1018	160.582326788701	1
1	1019	160.582326788701	1
1	1025	161.286696504238	1
1	1026	161.286696504238	1
1	1029	161.358097186483	0
1	1031	161.582326788701	0
1	1033	161.82028657721	0
1	1038	162.286696504238	0
1	1046	162.9529585551	1
1	1047	162.9529585551	1
1	1053	163.889955143527	1
1	1054	163.889955143527	1
1	1057	163.945457689898	0
1	1059	163.9529585551	0
1	1061	164.676647247651	0
1	1066	164.889955143527	0
1	1074	165.829584484225	1
1	1075	165.829584484225	1
1	1081	166.41181775562	1
1	1082	166.41181775562	1
1	1085	166.664171463952	0
1	1087	166.829584484225	0
1	1092	167.174912080463	0
1	1094	167.41181775562	0
1	1099	168.059607729327	0
1	1100	168.059607729327	0
1	1103	168.689460719237	0
1	1104	168.689460719237	0
1	1110	169.99709780951	0
1	1111	169.99709780951	0
1	1117	171.027463982512	0
1	1118	171.027463982512	0
1	1127	172.855207701025	0
1	1128	172.855207701025	0
1	1134	173.789011977706	0
1	1135	173.789011977706	0
1	1141	174.433369977542	0
1	1142	174.433369977542	0
1	1145	175.116357510528	0
1	1146	175.116357510528	0
1	1155	176.637435544302	0
1	1156	176.637435544302	0
1	1162	177.330474295324	0
1	1163	177.330474295324	0
1	1169	178.307555253058	0
1	1170	178.307555253058	0
1	1173	178.50999291353	0
1	1174	178.50999291353	0
1	1180	180.232002391011	0
1	1181	180.232002391011	0
1	1187	182.059830163978	0
1	1188	182.059830163978	0
1	1197	184.371661840212	0
1	1198	184.371661840212	0
1	1201	185.181606351942	0
1	1202	185.181606351942	0
1	1208	186.807621960908	0
1	1209	186.807621960908	0
1	1215	188.32982341718	0
1	1216	188.32982341718	0
1	1225	189.749153864631	0
1	1226	189.749153864631	0
1	1229	190.539403982914	0
1	1230	190.539403982914	0
1	1236	192.200821157921	0
1	1237	192.200821157921	0
1	1246	193.808319517243	0
1	1247	193.808319517243	0
1	1250	194.024399295729	0
1	1251	194.024399295729	0
1	1257	195.244900191573	0
1	1258	195.244900191573	0
1	1264	196.599458438018	0
1	1265	196.599458438018	0
1	1271	197.991953026469	0
1	1272	197.991953026469	0
1	1281	199.642307393446	0
1	1282	199.642307393446	0
1	1285	199.989686838382	0
1	1286	199.989686838382	0
1	1295	200.991536271908	0
1	1296	200.991536271908	0
1	1299	201.215986299641	0
1	1300	201.215986299641	0
1	1312	202.58777600845	1
1	1313	202.58777600845	1
1	1319	203.048369467387	1
1	1320	203.048369467387	1
1	1323	203.256227136238	0
1	1328	203.58777600845	1
1	1330	203.725903363345	0
1	1332	204.048369467387	0
1	1334	204.556469091605	0
1	1335	204.556469091605	0
1	1341	206.012621060825	0
1	1342	206.012621060825	0
1	1351	207.728773743408	0
1	1352	207.728773743408	0
1	1355	208.222244691859	0
1	1356	208.222244691859	0
1	1365	210.457457983217	0
1	1366	210.457457983217	0
1	1369	210.754146092166	0
1	1370	210.754146092166	0
1	1376	211.826109809756	0
1	1377	211.826109809756	0
1	1386	213.386419820624	0
1	1387	213.386419820624	0
1	1390	213.469047237152	0
1	1391	213.469047237152	0
1	1403	215.399879335185	1
1	1404	215.399879335185	1
1	1407	215.929052858858	0
1	1408	215.929052858858	0
1	1411	216.186467610315	0
1	1413	216.399879335185	0
1	1424	217.966031911313	1
1	1425	217.966031911313	1
1	1428	218.025664208699	0
1	1429	218.025664208699	0
1	1432	218.135970759183	0
1	1437	218.966031911313	0
1	1439	219.328433741074	0
1	1440	219.328433741074	0
1	1446	220.94577365326	0
1	1447	220.94577365326	0
1	1456	222.280949960308	0
1	1457	222.280949960308	0
1	1460	223.115487822383	0
1	1461	223.115487822383	0
1	1467	224.813506629997	0
1	1468	224.813506629997	0
1	1474	226.210461101766	0
1	1475	226.210461101766	0
1	1481	227.21999261477	0
1	1482	227.21999261477	0
1	1491	228.705776671224	0
1	1492	228.705776671224	0
1	1495	229.263216430741	0
1	1496	229.263216430741	0
1	1505	230.343729563184	0
1	1506	230.343729563184	0
1	1509	231.108720941158	0
1	1510	231.108720941158	0
1	1519	232.788534644475	0
1	1520	232.788534644475	0
1	1523	233.679065795051	0
1	1524	233.679065795051	0
1	1536	234.9222526552	1
1	1537	234.9222526552	1
1	1540	234.971757379621	0
1	1541	234.971757379621	0
1	1544	235.717193473894	0
1	1549	235.9222526552	0
1	1551	236.807916010263	0
1	1552	236.807916010263	0
1	1561	237.881404914349	0
1	1562	237.881404914349	0
1	1565	238.787431553059	0
1	1566	238.787431553059	0
1	1575	240.428318487103	0
1	1576	240.428318487103	0
1	1579	241.368623039999	0
1	1580	241.368623039999	0
1	1586	242.655452561297	0
1	1587	242.655452561297	0
1	1596	245.079299022526	0
1	1597	245.079299022526	0
1	1603	245.725832596747	0
1	1604	245.725832596747	0
1	1610	246.636062521304	0
1	1611	246.636062521304	0
1	1614	247.435199454777	0
1	1615	247.435199454777	0
1	1624	249.477626162634	0
1	1625	249.477626162634	0
1	1631	250.312712958671	0
1	1632	250.312712958671	0
1	1635	250.522524052891	0
1	1636	250.522524052891	0
1	1642	251.542421590475	0
1	1643	251.542421590475	0
1	1649	253.081402919012	0
1	1650	253.081402919012	0
1	1659	254.184446326341	0
1	1660	254.184446326341	0
1	1663	254.750828725797	0
1	1664	254.750828725797	0
1	1670	256.405319690715	0
1	1671	256.405319690715	0
1	1677	257.885656739845	0
1	1678	257.885656739845	0
1	1687	259.39531049815	0
1	1688	259.39531049815	0
1	1691	259.811250584273	0
1	1692	259.811250584273	0
1	1701	261.484642452157	0
1	1702	261.484642452157	0
1	1705	262.426361810903	0
1	1706	262.426361810903	0
1	1715	264.07495234595	0
1	1716	264.07495234595	0
1	1719	264.707619039854	0
1	1720	264.707619039854	0
1	1729	266.405495609379	0
1	1730	266.405495609379	0
1	1736	266.622255836784	0
1	1737	266.622255836784	0
1	1746	267.411065191314	1
1	1747	267.411065191314	1
1	1750	268.178493933959	0
1	1751	268.178493933959	0
1	1754	268.376515015863	0
1	1756	268.411065191314	0
1	1761	270.042647529634	0
1	1762	270.042647529634	0
1	1771	272.097186583097	0
1	1772	272.097186583097	0
1	1775	272.305336749013	0
1	1776	272.305336749013	0
1	1785	274.007451803645	0
1	1786	274.007451803645	0
1	1789	274.974200760227	0
1	1790	274.974200760227	0
1	1799	276.169863307145	0
1	1800	276.169863307145	0
1	1806	276.966694585323	0
1	1807	276.966694585323	0
1	1813	277.451443510551	0
1	1814	277.451443510551	0
1	1817	278.158658962386	0
1	1818	278.158658962386	0
1	1824	279.88253839158	0
1	1825	279.88253839158	0
1	1834	281.127149860675	0
1	1835	281.127149860675	0
1	1841	281.717203079917	0
1	1842	281.717203079917	0
1	1848	282.705233455435	0
1	1849	282.705233455435	0
1	1855	283.48368244529	0
1	1856	283.48368244529	0
1	1862	284.261700354714	0
1	1863	284.261700354714	0
1	1869	285.018124937804	0
1	1870	285.018124937804	0
1	1879	285.974332649894	1
1	1880	285.974332649894	1
1	1883	286.350239254759	0
1	1884	286.350239254759	0
1	1887	286.848559236588	0
1	1889	286.974332649894	0
1	1897	288.003394506914	0
1	1898	288.003394506914	0
1	1901	288.629504253902	0
1	1902	288.629504253902	0
1	1908	290.20661834746	0
1	1909	290.20661834746	0
1	1915	291.547115926648	0
1	1916	291.547115926648	0
1	1922	292.999360040187	0
1	1923	292.999360040187	0
1	1935	294.694658302741	1
1	1936	294.694658302741	1
1	1939	295.084069166862	0
1	1940	295.084069166862	0
1	1946	295.580063250562	0
1	1951	295.694658302741	1
1	1956	296.48874108819	1
1	1957	296.48874108819	1
1	1960	296.678838486624	0
1	1961	296.678838486624	0
1	1964	297.252354248875	0
1	1966	297.48874108819	0
1	1971	298.50145554932	0
1	1972	298.50145554932	0
1	1981	299.725865130881	0
1	1982	299.725865130881	0
1	1988	300.468138335863	0
1	1989	300.468138335863	0
1	1992	301.378996907338	0
1	1993	301.378996907338	0
1	2008	303.115217083165	1
1	2009	303.115217083165	1
1	2012	303.29389671899	1
1	2013	303.29389671899	1
1	2016	303.759340052378	0
1	2018	304.115217083165	0
1	2019	304.115217083165	0
1	2022	304.29389671899	0
1	2030	305.430350232645	0
1	2031	305.430350232645	0
1	2034	306.039384460422	0
1	2035	306.039384460422	0
1	2044	307.068591775905	0
1	2045	307.068591775905	0
1	2051	307.76295553041	0
1	2052	307.76295553041	0
1	2058	308.348938727014	0
1	2059	308.348938727014	0
1	2062	309.026282627494	0
1	2063	309.026282627494	0