version 3
run k_MM1_lbqf-4-20221127-16:03:34-25264
attr configname k_MM1_lbqf
attr datetime 20221127-16:03:34
attr datetimef 20221127-160334
attr experiment k_MM1_lbqf
attr inifile omnetpp.ini
attr iterationvars "$time=1.0, $num=5, $0=53542, $1=75335, $2=34542"
attr iterationvarsd time=1.0/num=5/53542/75335/34542
attr iterationvarsf time=1.0,num=5,53542,75335,34542-
attr measurement "$time=1.0, $num=5, $0=53542, $1=75335, $2=34542"
attr network lbqfkMM1
attr processid 25264
attr repetition 0
attr replication #0
attr resultdir results
attr runnumber 4
attr seedset 4
itervar num 5
itervar time 1.0
config description "MM1 module k-times lbqf"
config network lbqfkMM1
config **.interArrivalTime "truncnormal(uniform(0.5s, 1.5s), uniform(0.25s, 0.75s))"
config **.serviceTime 1.0s
config **.c 5
config **.capacity 10000
config record-eventlog false
config **.scalar-recording true
config **.vector-recording true
config repeat 4
config seed-1-mt 53542
config seed-2-mt 75335
config seed-3-mt 34542
config output-vector-file k_MM1_lbqf-5-1.0-results/0.vec
config output-scalar-file k_MM1_lbqf-5-1.0-results/0.sca

vector 0 lbqfkMM1.mm1[0] queueLength:vector ETV
attr interpolationmode none
attr recordingmode vector
attr title "queue length"
vector 1 lbqfkMM1.mm1[0] util:vector ETV
attr interpolationmode none
attr recordingmode vector
attr title resources
vector 2 lbqfkMM1.mm1[1] queueLength:vector ETV
attr interpolationmode none
attr recordingmode vector
attr title "queue length"
vector 3 lbqfkMM1.mm1[1] util:vector ETV
attr interpolationmode none
attr recordingmode vector
attr title resources
vector 4 lbqfkMM1.mm1[2] queueLength:vector ETV
attr interpolationmode none
attr recordingmode vector
attr title "queue length"
vector 5 lbqfkMM1.mm1[3] queueLength:vector ETV
attr interpolationmode none
attr recordingmode vector
attr title "queue length"
vector 6 lbqfkMM1.mm1[2] util:vector ETV
attr interpolationmode none
attr recordingmode vector
attr title resources
vector 7 lbqfkMM1.mm1[3] util:vector ETV
attr interpolationmode none
attr recordingmode vector
attr title resources
vector 8 lbqfkMM1.mm1[4] queueLength:vector ETV
attr interpolationmode none
attr recordingmode vector
attr title "queue length"
vector 9 lbqfkMM1.mm1[4] util:vector ETV
attr interpolationmode none
attr recordingmode vector
attr title resources
0	5	10	1
0	6	11	0
0	12	11.878600113022	1
0	13	11.878600113022	2
0	14	12	1
0	22	13	0
0	31	13.958955656928	1
0	32	13.958955656928	2
0	33	14	1
0	39	15	0
0	45	15.422333129121	1
0	46	15.422333129121	2
0	52	16	1
0	63	17	0
0	69	17.185745827964	1
0	70	17.185745827964	2
0	74	18	1
0	90	19	0
0	102	19.61052979811	1
0	103	19.61052979811	2
0	107	20	1
0	116	21	0
0	122	21.160074349923	1
0	123	21.160074349923	2
0	124	22	1
0	137	23	0
0	156	24.061471338598	1
0	160	25.061471338598	0
0	166	25.568792881926	1
0	167	25.568792881926	2
0	168	26.061471338598	1
0	176	27.061471338598	0
0	182	27.579620951892	1
0	183	27.579620951892	2
0	187	28.061471338598	1
0	198	29.061471338598	0
0	207	29.968509697151	1
0	208	29.968509697151	2
0	209	30.061471338598	1
0	220	31.061471338598	0
0	233	32.343620454308	1
0	247	33.343620454308	0
0	256	33.994941942845	1
0	257	33.994941942845	2
0	261	34.343620454308	1
0	270	35.343620454308	0
0	276	35.645299117581	1
0	277	35.645299117581	2
0	278	36.343620454308	1
0	286	37.343620454308	0
0	295	37.722078507824	1
0	296	37.722078507824	2
0	297	38.343620454308	1
0	303	39.343620454308	0
0	309	39.658864846622	1
0	310	39.658864846622	2
0	311	40.343620454308	1
0	324	41.343620454308	0
0	330	41.705392487367	1
0	331	41.705392487367	2
0	338	42.343620454308	1
0	352	43.343620454308	0
0	358	43.612558218707	1
0	359	43.612558218707	2
0	363	44.343620454308	1
0	374	45.343620454308	0
0	380	45.41671601645	1
0	381	45.41671601645	2
0	385	46.343620454308	1
0	391	47.343620454308	0
0	397	47.446046405745	1
0	398	47.446046405745	2
0	399	48.343620454308	1
0	407	49.343620454308	0
0	413	49.540743730911	1
0	414	49.540743730911	2
0	423	50.343620454308	1
0	429	51.343620454308	0
0	435	51.379793338667	1
0	436	51.379793338667	2
0	445	52.343620454308	1
0	451	53.343620454308	0
0	460	53.95148060998	1
0	461	53.95148060998	2
0	462	54.343620454308	1
0	468	55.343620454308	0
0	474	55.471385752093	1
0	475	55.471385752093	2
0	476	56.343620454308	1
0	484	57.343620454308	0
0	493	57.884694804257	1
0	494	57.884694804257	2
0	495	58.343620454308	1
0	506	59.343620454308	0
0	519	60.498752700312	1
0	533	61.498752700312	0
0	545	62.222872636664	1
0	546	62.222872636664	2
0	547	62.498752700312	1
0	561	63.498752700312	0
0	574	65.088384110672	1
0	583	66.088384110672	0
0	596	67.436934742858	1
0	605	68.436934742858	0
0	611	69.037796516694	1
0	612	69.037796516694	2
0	616	69.436934742858	1
0	622	70.436934742858	0
0	628	70.891093991243	1
0	629	70.891093991243	2
0	630	71.436934742858	1
0	633	72.436934742858	0
0	639	72.708137585827	1
0	640	72.708137585827	2
0	641	73.436934742858	1
0	649	74.436934742858	0
0	658	75.107009301934	1
0	659	75.107009301934	2
0	660	75.436934742858	1
0	666	76.436934742858	0
0	672	77.211527432608	1
0	673	77.211527432608	2
0	674	77.436934742858	1
0	682	78.436934742858	0
0	691	78.83751299429	1
0	692	78.83751299429	2
0	693	79.436934742858	1
0	704	80.436934742858	0
0	710	81.009517202924	1
0	711	81.009517202924	2
0	720	81.436934742858	1
0	734	82.436934742858	0
0	750	83.712402327643	1
0	759	84.712402327643	0
0	765	84.740742060059	1
0	766	84.740742060059	2
0	770	85.712402327643	1
0	781	86.712402327643	0
0	794	88.04403610269	1
0	798	89.04403610269	0
0	808	90.411541690081	1
0	814	91.411541690081	0
0	827	92.769954461528	1
0	836	93.769954461528	0
0	842	94.173897522847	1
0	843	94.173897522847	2
0	847	94.769954461528	1
0	858	95.769954461528	0
0	864	95.943260137662	1
0	865	95.943260137662	2
0	879	96.769954461528	1
0	888	97.769954461528	0
0	894	98.104053098752	1
0	895	98.104053098752	2
0	912	98.769954461528	1
0	921	99.769954461528	0
0	930	100.715792677332	1
0	931	100.715792677332	2
0	935	100.769954461528	1
0	941	101.769954461528	0
0	947	102.114126639749	1
0	948	102.114126639749	2
0	949	102.769954461528	1
0	957	103.769954461528	0
0	963	104.271950002132	1
0	964	104.271950002132	2
0	968	104.769954461528	1
0	984	105.769954461528	0
0	1003	107.093027336181	1
0	1012	108.093027336181	0
0	1018	108.541467875442	1
0	1019	108.541467875442	2
0	1023	109.093027336181	1
0	1034	110.093027336181	0
0	1047	111.122212667738	1
0	1056	112.122212667738	0
0	1062	112.585604953012	1
0	1063	112.585604953012	2
0	1067	113.122212667738	1
0	1073	114.122212667738	0
0	1079	114.214050405493	1
0	1080	114.214050405493	2
0	1086	115.122212667738	1
0	1097	116.122212667738	0
0	1103	116.84901352614	1
0	1104	116.84901352614	2
0	1108	117.122212667738	1
0	1119	118.122212667738	0
0	1125	118.296347942236	1
0	1126	118.296347942236	2
0	1133	119.122212667738	1
0	1144	120.122212667738	0
0	1153	120.615836827229	1
0	1154	120.615836827229	2
0	1155	121.122212667738	1
0	1161	122.122212667738	0
0	1167	122.161504252997	1
0	1168	122.161504252997	2
0	1174	123.122212667738	1
0	1185	124.122212667738	0
0	1198	125.584894522958	1
0	1202	126.584894522958	0
0	1215	127.812415520959	1
0	1216	128.812415520959	0
0	1222	129.176841037912	1
0	1223	129.176841037912	2
0	1234	129.812415520959	1
0	1243	130.812415520959	0
0	1259	131.992738275909	1
0	1265	132.992738275909	0
0	1271	133.385752868557	1
0	1272	133.385752868557	2
0	1281	133.992738275909	1
0	1292	134.992738275909	0
0	1298	135.035668681543	1
0	1299	135.035668681543	2
0	1306	135.992738275909	1
0	1320	136.992738275909	0
0	1326	137.056279874706	1
0	1327	137.056279874706	2
0	1331	137.992738275909	1
0	1342	138.992738275909	0
0	1355	140.211165708995	1
0	1364	141.211165708995	0
0	1377	142.22984261591	1
0	1386	143.22984261591	0
0	1392	144.071524769477	1
0	1393	144.071524769477	2
0	1397	144.22984261591	1
0	1403	145.22984261591	0
0	1409	145.548272715339	1
0	1410	145.548272715339	2
0	1411	146.22984261591	1
0	1424	147.22984261591	0
0	1433	147.903231915073	1
0	1434	147.903231915073	2
0	1438	148.22984261591	1
0	1452	149.22984261591	0
0	1465	150.369484167135	1
0	1469	151.369484167135	0
0	1475	151.539509895416	1
0	1476	151.539509895416	2
0	1477	152.369484167135	1
0	1485	153.369484167135	0
0	1494	154.066056863111	1
0	1495	154.066056863111	2
0	1496	154.369484167135	1
0	1507	155.369484167135	0
0	1516	156.364216963045	1
0	1517	156.364216963045	2
0	1518	156.369484167135	1
0	1524	157.369484167135	0
0	1530	157.609813251345	1
0	1531	157.609813251345	2
0	1532	158.369484167135	1
0	1540	159.369484167135	0
0	1553	160.921496485018	1
0	1557	161.921496485018	0
0	1567	162.998716942567	1
0	1568	163.998716942567	0
0	1574	164.704952931905	1
0	1575	164.704952931905	2
0	1576	164.998716942567	1
0	1579	165.998716942567	0
0	1585	166.137243624217	1
0	1586	166.137243624217	2
0	1587	166.998716942567	1
0	1595	167.998716942567	0
0	1604	168.92695132395	1
0	1605	168.92695132395	2
0	1611	168.998716942567	1
0	1622	169.998716942567	0
0	1634	170.75079233895	1
0	1635	170.75079233895	2
0	1636	170.998716942567	1
0	1650	171.998716942567	0
0	1656	172.384985732234	1
0	1657	172.384985732234	2
0	1661	172.998716942567	1
0	1677	173.998716942567	0
0	1683	174.873424490966	1
0	1684	174.873424490966	2
0	1691	174.998716942567	1
0	1700	175.998716942567	0
0	1706	176.553475354491	1
0	1707	176.553475354491	2
0	1708	176.998716942567	1
0	1716	177.998716942567	0
0	1725	178.636878175271	1
0	1726	178.636878175271	2
0	1727	178.998716942567	1
0	1733	179.998716942567	0
0	1739	180.139810993924	1
0	1740	180.139810993924	2
0	1741	180.998716942567	1
0	1749	181.998716942567	0
0	1758	182.769221206579	1
0	1759	182.769221206579	2
0	1760	182.998716942567	1
0	1776	183.998716942567	0
0	1795	185.521818056371	1
0	1804	186.521818056371	0
0	1813	187.363691527774	1
0	1814	187.363691527774	2
0	1815	187.521818056371	1
0	1826	188.521818056371	0
0	1832	188.665084881516	1
0	1833	188.665084881516	2
0	1842	189.521818056371	1
0	1853	190.521818056371	0
0	1859	190.951282574588	1
0	1860	190.951282574588	2
0	1867	191.521818056371	1
0	1876	192.521818056371	0
0	1882	192.540241459701	1
0	1883	192.540241459701	2
0	1884	193.521818056371	1
0	1892	194.521818056371	0
0	1898	194.569740198865	1
0	1899	194.569740198865	2
0	1903	195.521818056371	1
0	1914	196.521818056371	0
0	1923	196.779781731475	1
0	1924	196.779781731475	2
0	1925	197.521818056371	1
0	1936	198.521818056371	0
0	1949	199.651045752839	1
0	1953	200.651045752839	0
0	1959	201.279444002228	1
0	1960	201.279444002228	2
0	1961	201.651045752839	1
0	1964	202.651045752839	0
0	1970	202.679926460742	1
0	1971	202.679926460742	2
0	1977	203.651045752839	1
0	1988	204.651045752839	0
0	2000	205.597476575655	1
0	2001	205.597476575655	2
0	2002	205.651045752839	1
0	2008	206.651045752839	0
0	2014	206.970016788532	1
0	2015	206.970016788532	2
0	2021	207.651045752839	1
0	2027	208.651045752839	0
0	2033	208.789483467738	1
0	2034	208.789483467738	2
0	2043	209.651045752839	1
0	2054	210.651045752839	0
0	2060	211.216276755472	1
0	2061	211.216276755472	2
0	2068	211.651045752839	1
0	2079	212.651045752839	0
0	2088	212.847473175458	1
0	2089	212.847473175458	2
0	2090	213.651045752839	1
0	2106	214.651045752839	0
0	2125	216.100958203855	1
0	2129	217.100958203855	0
0	2135	217.995671895764	1
0	2136	217.995671895764	2
0	2137	218.100958203855	1
0	2140	219.100958203855	0
0	2146	219.359002501969	1
0	2147	219.359002501969	2
0	2148	220.100958203855	1
0	2151	221.100958203855	0
0	2157	221.130251835615	1
0	2158	221.130251835615	2
0	2159	222.100958203855	1
0	2167	223.100958203855	0
0	2173	223.391749748838	1
0	2174	223.391749748838	2
0	2178	224.100958203855	1
0	2189	225.100958203855	0
0	2198	225.950868136519	1
0	2199	225.950868136519	2
0	2200	226.100958203855	1
0	2211	227.100958203855	0
0	2224	228.56429162808	1
0	2233	229.56429162808	0
0	2239	230.433066349663	1
0	2240	230.433066349663	2
0	2244	230.56429162808	1
0	2260	231.56429162808	0
0	2266	231.877121943067	1
0	2267	231.877121943067	2
0	2274	232.56429162808	1
0	2283	233.56429162808	0
0	2289	233.976338737937	1
0	2290	233.976338737937	2
0	2291	234.56429162808	1
0	2299	235.56429162808	0
0	2308	236.371726553886	1
0	2309	236.371726553886	2
0	2310	236.56429162808	1
0	2321	237.56429162808	0
0	2327	238.249331450864	1
0	2328	238.249331450864	2
0	2332	238.56429162808	1
0	2343	239.56429162808	0
0	2349	240.128392778975	1
0	2350	240.128392778975	2
0	2354	240.56429162808	1
0	2365	241.56429162808	0
0	2378	242.844737620544	1
0	2387	243.844737620544	0
0	2400	244.872863619526	1
0	2409	245.872863619526	0
0	2415	246.017564479084	1
0	2416	246.017564479084	2
0	2420	246.872863619526	1
0	2426	247.872863619526	0
0	2432	248.012248168574	1
0	2433	248.012248168574	2
0	2434	248.872863619526	1
0	2442	249.872863619526	0
0	2458	251.70296444363	1
0	2464	252.70296444363	0
0	2473	253.260236139253	1
0	2474	253.260236139253	2
0	2475	253.70296444363	1
0	2491	254.70296444363	0
0	2507	255.789568552705	1
0	2514	256.789568552705	0
0	2520	257.095954665412	1
0	2521	257.095954665412	2
0	2522	257.789568552705	1
0	2530	258.789568552705	0
0	2543	259.83525922957	1
0	2552	260.83525922957	0
0	2558	260.968910456949	1
0	2559	260.968910456949	2
0	2563	261.83525922957	1
0	2569	262.83525922957	0
0	2575	263.132783688006	1
0	2576	263.132783688006	2
0	2577	263.83525922957	1
0	2585	264.83525922957	0
0	2594	265.792610106803	1
0	2595	265.792610106803	2
0	2596	265.83525922957	1
0	2607	266.83525922957	0
0	2613	267.075334258613	1
0	2614	267.075334258613	2
0	2618	267.83525922957	1
0	2624	268.83525922957	0
0	2630	268.855645327594	1
0	2631	268.855645327594	2
0	2632	269.83525922957	1
0	2640	270.83525922957	0
0	2656	272.088111356733	1
0	2657	273.088111356733	0
0	2663	273.111093632851	1
0	2664	273.111093632851	2
0	2665	274.088111356733	1
0	2673	275.088111356733	0
0	2682	275.95226564995	1
0	2683	275.95226564995	2
0	2684	276.088111356733	1
0	2690	277.088111356733	0
0	2700	278.51034956358	1
0	2701	279.51034956358	0
0	2711	280.513105181839	1
0	2712	281.513105181839	0
0	2718	281.970742134789	1
0	2719	281.970742134789	2
0	2720	282.513105181839	1
0	2728	283.513105181839	0
0	2744	285.657384515226	1
0	2745	286.657384515226	0
0	2751	287.105230042487	1
0	2752	287.105230042487	2
0	2753	287.657384515226	1
0	2756	288.657384515226	0
0	2762	288.730275904192	1
0	2763	288.730275904192	2
0	2769	289.657384515226	1
0	2785	290.657384515226	0
0	2797	291.1461908049	1
0	2798	291.1461908049	2
0	2799	291.657384515226	1
0	2823	292.657384515226	0
0	2838	293.62704315379	1
0	2839	293.62704315379	2
0	2840	293.657384515226	1
0	2857	294.657384515226	0
0	2863	294.822938908753	1
0	2864	294.822938908753	2
0	2876	295.657384515226	1
0	2890	296.657384515226	0
0	2896	296.815518761318	1
0	2897	296.815518761318	2
0	2904	297.657384515226	1
0	2910	298.657384515226	0
0	2916	299.246698904483	1
0	2917	299.246698904483	2
0	2918	299.657384515226	1
0	2926	300.657384515226	0
0	2935	301.232170190088	1
0	2936	301.232170190088	2
0	2942	301.657384515226	1
0	2953	302.657384515226	0
0	2962	303.184293340264	1
0	2963	303.184293340264	2
0	2972	303.657384515226	1
0	2981	304.657384515226	0
0	2987	304.713560597636	1
0	2988	304.713560597636	2
0	2992	305.657384515226	1
0	2998	306.657384515226	0
0	3004	306.7189728785	1
0	3005	306.7189728785	2
0	3006	307.657384515226	1
0	3014	308.657384515226	0
0	3027	310.022425966936	1
0	3036	311.022425966936	0
0	3049	312.212630124482	1
0	3058	313.212630124482	0
0	3067	313.958252156065	1
0	3068	313.958252156065	2
0	3069	314.212630124482	1
0	3075	315.212630124482	0
0	3081	315.526735501865	1
0	3082	315.526735501865	2
0	3088	316.212630124482	1
0	3094	317.212630124482	0
0	3100	317.267139292517	1
0	3101	317.267139292517	2
0	3105	318.212630124482	1
0	3108	319.212630124482	0
0	3114	319.269820436497	1
0	3115	319.269820436497	2
0	3121	320.212630124482	1
0	3137	321.212630124482	0
0	3153	322.502054877045	1
0	3165	323.502054877045	0
0	3174	324.475039284467	1
0	3175	324.475039284467	2
0	3176	324.502054877045	1
0	3182	325.502054877045	0
0	3188	326.057748239541	1
0	3189	326.057748239541	2
0	3193	326.502054877045	1
0	3196	327.502054877045	0
0	3202	327.724331283412	1
0	3203	327.724331283412	2
0	3209	328.502054877045	1
0	3220	329.502054877045	0
0	3233	330.516292478629	1
0	3242	331.516292478629	0
0	3255	332.563119956381	1
0	3264	333.563119956381	0
0	3270	333.62487940812	1
0	3271	333.62487940812	2
0	3283	334.563119956381	1
0	3297	335.563119956381	0
0	3306	336.557481388949	1
0	3307	336.557481388949	2
0	3308	336.563119956381	1
0	3314	337.563119956381	0
0	3320	337.590774357186	1
0	3321	337.590774357186	2
0	3330	338.563119956381	1
0	3341	339.563119956381	0
0	3350	340.469578987392	1
0	3351	340.469578987392	2
0	3355	340.563119956381	1
0	3366	341.563119956381	0
0	3372	341.671109930266	1
0	3373	341.671109930266	2
0	3377	342.563119956381	1
0	3393	343.563119956381	0
0	3402	344.402154822618	1
0	3403	344.402154822618	2
0	3407	344.563119956381	1
0	3416	345.563119956381	0
0	3422	345.657619375249	1
0	3423	345.657619375249	2
0	3424	346.563119956381	1
0	3442	347.563119956381	0
0	3467	349.079830445567	1
0	3476	350.079830445567	0
0	3485	350.435840466605	1
0	3486	350.435840466605	2
0	3492	351.079830445567	1
0	3503	352.079830445567	0
0	3512	352.374000891287	1
0	3513	352.374000891287	2
0	3522	353.079830445567	1
0	3536	354.079830445567	0
0	3545	354.481915482346	1
0	3546	354.481915482346	2
0	3550	355.079830445567	1
0	3569	356.079830445567	0
0	3588	357.722284675564	1
0	3592	358.722284675564	0
0	3598	359.186537742157	1
0	3599	359.186537742157	2
0	3600	359.722284675564	1
0	3603	360.722284675564	0
0	3609	360.883287078704	1
0	3610	360.883287078704	2
0	3616	361.722284675564	1
0	3627	362.722284675564	0
0	3639	363.568970439073	1
0	3640	363.568970439073	2
0	3641	363.722284675564	1
0	3652	364.722284675564	0
0	3665	366.350773562385	1
0	3674	367.350773562385	0
0	3687	368.782657692544	1
0	3696	369.782657692544	0
0	3702	369.821571713819	1
0	3703	369.821571713819	2
0	3712	370.782657692544	1
0	3723	371.782657692544	0
0	3735	372.288601579738	1
0	3736	372.288601579738	2
0	3737	372.782657692544	1
0	3751	373.782657692544	0
0	3757	374.351161845521	1
0	3758	374.351161845521	2
0	3762	374.782657692544	1
0	3773	375.782657692544	0
0	3786	377.029631560943	1
0	3790	378.029631560943	0
0	3796	378.160860177166	1
0	3797	378.160860177166	2
0	3798	379.029631560943	1
0	3811	380.029631560943	0
0	3833	382.43093063453	1
0	3839	383.43093063453	0
0	3848	383.620211373706	1
0	3849	383.620211373706	2
0	3855	384.43093063453	1
0	3861	385.43093063453	0
0	3870	385.948842913034	1
0	3871	385.948842913034	2
0	3872	386.43093063453	1
0	3883	387.43093063453	0
0	3896	388.948445841571	1
0	3900	389.948445841571	0
0	3906	390.211519913747	1
0	3907	390.211519913747	2
0	3908	390.948445841571	1
0	3911	391.948445841571	0
0	3917	392.165561640163	1
0	3918	392.165561640163	2
0	3919	392.948445841571	1
0	3932	393.948445841571	0
0	3944	394.731178546942	1
0	3945	394.731178546942	2
0	3946	394.948445841571	1
0	3955	395.948445841571	0
0	3961	395.963862845358	1
0	3962	395.963862845358	2
0	3963	396.948445841571	1
0	3971	397.948445841571	0
0	3977	398.062175165503	1
0	3978	398.062175165503	2
0	3982	398.948445841571	1
0	3993	399.948445841571	0
0	4002	400.682921998641	1
0	4003	400.682921998641	2
0	4004	400.948445841571	1
0	4010	401.948445841571	0
0	4016	402.391476965389	1
0	4017	402.391476965389	2
0	4018	402.948445841571	1
0	4026	403.948445841571	0
0	4032	404.482963149916	1
0	4033	404.482963149916	2
0	4037	404.948445841571	1
0	4043	405.948445841571	0
0	4049	406.06303558153	1
0	4050	406.06303558153	2
0	4051	406.948445841571	1
0	4059	407.948445841571	0
0	4068	408.287193325724	1
0	4069	408.287193325724	2
0	4075	408.948445841571	1
0	4086	409.948445841571	0
0	4095	410.646543032293	1
0	4096	410.646543032293	2
0	4100	410.948445841571	1
0	4114	411.948445841571	0
0	4123	412.75072991939	1
0	4124	412.75072991939	2
0	4125	412.948445841571	1
0	4136	413.948445841571	0
0	4142	413.990200664997	1
0	4143	413.990200664997	2
0	4152	414.948445841571	1
0	4166	415.948445841571	0
0	4172	416.427785266739	1
0	4173	416.427785266739	2
0	4185	416.948445841571	1
0	4196	417.948445841571	0
0	4205	418.662666710789	1
0	4206	418.662666710789	2
0	4210	418.948445841571	1
0	4219	419.948445841571	0
0	4225	419.998348811472	1
0	4226	419.998348811472	2
0	4227	420.948445841571	1
0	4235	421.948445841571	0
0	4244	422.773834205302	1
0	4245	422.773834205302	2
0	4246	422.948445841571	1
0	4252	423.948445841571	0
0	4258	423.997587840784	1
0	4259	423.997587840784	2
0	4265	424.948445841571	1
0	4271	425.948445841571	0
0	4277	426.036192459852	1
0	4278	426.036192459852	2
0	4287	426.948445841571	1
0	4298	427.948445841571	0
0	4304	428.240301646902	1
0	4305	428.240301646902	2
0	4312	428.948445841571	1
0	4323	429.948445841571	0
0	4329	429.958847050272	1
0	4330	429.958847050272	2
0	4334	430.948445841571	1
0	4345	431.948445841571	0
0	4351	432.600044136663	1
0	4352	432.600044136663	2
0	4356	432.948445841571	1
0	4367	433.948445841571	0
0	4373	434.176773881747	1
0	4374	434.176773881747	2
0	4383	434.948445841571	1
0	4394	435.948445841571	0
0	4403	436.316964533807	1
0	4404	436.316964533807	2
0	4408	436.948445841571	1
0	4422	437.948445841571	0
0	4431	438.710587268762	1
0	4432	438.710587268762	2
0	4433	438.948445841571	1
0	4444	439.948445841571	0
0	4457	441.138358205724	1
0	4461	442.138358205724	0
0	4471	443.935442442074	1
0	4477	444.935442442074	0
0	4490	446.298748474623	1
0	4494	447.298748474623	0
0	4500	447.953033473819	1
0	4501	447.953033473819	2
0	4502	448.298748474623	1
0	4505	449.298748474623	0
0	4511	449.520626575056	1
0	4512	449.520626575056	2
0	4523	450.298748474623	1
0	4532	451.298748474623	0
0	4538	452.090761539738	1
0	4539	452.090761539738	2
0	4546	452.298748474623	1
0	4549	453.298748474623	0
0	4555	453.655738256172	1
0	4556	453.655738256172	2
0	4562	454.298748474623	1
0	4573	455.298748474623	0
0	4579	455.459445913228	1
0	4580	455.459445913228	2
0	4589	456.298748474623	1
0	4603	457.298748474623	0
0	4609	457.863333388333	1
0	4610	457.863333388333	2
0	4617	458.298748474623	1
0	4628	459.298748474623	0
0	4644	460.355068384246	1
0	4648	461.355068384246	0
0	4654	461.825166079754	1
0	4655	461.825166079754	2
0	4656	462.355068384246	1
0	4659	463.355068384246	0
0	4665	463.441023000517	1
0	4666	463.441023000517	2
0	4667	464.355068384246	1
0	4675	465.355068384246	0
0	4684	466.34344824739	1
0	4685	466.34344824739	2
0	4686	466.355068384246	1
0	4692	467.355068384246	0
0	4698	467.681278156373	1
0	4699	467.681278156373	2
0	4700	468.355068384246	1
0	4713	469.355068384246	0
0	4725	469.991293189609	1
0	4726	469.991293189609	2
0	4727	470.355068384246	1
0	4741	471.355068384246	0
0	4747	471.744021084471	1
0	4748	471.744021084471	2
0	4752	472.355068384246	1
0	4763	473.355068384246	0
0	4776	474.442577365697	1
0	4780	475.442577365697	0
0	4786	475.881961696408	1
0	4787	475.881961696408	2
0	4788	476.442577365697	1
0	4796	477.442577365697	0
0	4805	477.603553662455	1
0	4806	477.603553662455	2
0	4807	478.442577365697	1
0	4813	479.442577365697	0
0	4819	479.530393903719	1
0	4820	479.530393903719	2
0	4826	480.442577365697	1
0	4837	481.442577365697	0
0	4849	482.105927038926	1
0	4850	482.105927038926	2
0	4851	482.442577365697	1
0	4857	483.442577365697	0
0	4863	484.071500282561	1
0	4864	484.071500282561	2
0	4865	484.442577365697	1
0	4868	485.442577365697	0
0	4874	485.828918438661	1
0	4875	485.828918438661	2
0	4876	486.442577365697	1
0	4884	487.442577365697	0
0	4893	488.403473487033	1
0	4894	488.403473487033	2
0	4895	488.442577365697	1
0	4906	489.442577365697	0
0	4912	489.548168213881	1
0	4913	489.548168213881	2
0	4922	490.442577365697	1
0	4933	491.442577365697	0
0	4952	492.83533175653	1
0	4956	493.83533175653	0
0	4962	494.203826923859	1
0	4963	494.203826923859	2
0	4964	494.83533175653	1
0	4972	495.83533175653	0
0	4978	495.845293251001	1
0	4979	495.845293251001	2
0	4988	496.83533175653	1
0	4999	497.83533175653	0
0	5011	498.705881244638	1
0	5012	498.705881244638	2
0	5013	498.83533175653	1
0	5022	499.83533175653	0
0	5028	500.365856675095	1
0	5029	500.365856675095	2
0	5030	500.83533175653	1
0	5043	501.83533175653	0
0	5062	503.222799230274	1
0	5076	504.222799230274	0
0	5088	504.936974983651	1
0	5089	504.936974983651	2
0	5090	505.222799230274	1
0	5099	506.222799230274	0
0	5105	506.230368502329	1
0	5106	506.230368502329	2
0	5107	507.222799230274	1
0	5115	508.222799230274	0
0	5121	508.47629209539	1
0	5122	508.47629209539	2
0	5131	509.222799230274	1
0	5147	510.222799230274	0
0	5162	510.796597319561	1
0	5163	510.796597319561	2
0	5164	511.222799230274	1
0	5181	512.222799230274	0
0	5197	513.877154073618	1
0	5198	514.877154073618	0
0	5204	515.294596701094	1
0	5205	515.294596701094	2
0	5206	515.877154073618	1
0	5214	516.877154073618	0
0	5223	517.581102379111	1
0	5224	517.581102379111	2
0	5225	517.877154073618	1
0	5236	518.877154073618	0
0	5245	519.686423424583	1
0	5246	519.686423424583	2
0	5247	519.877154073618	1
0	5258	520.877154073618	0
0	5271	522.22562242337	1
0	5275	523.22562242337	0
0	5281	523.946889385897	1
0	5282	523.946889385897	2
0	5283	524.22562242337	1
0	5291	525.22562242337	0
0	5300	526.221569686956	1
0	5301	526.221569686956	2
0	5302	526.22562242337	1
0	5308	527.22562242337	0
0	5314	527.399209956845	1
0	5315	527.399209956845	2
0	5316	528.22562242337	1
0	5324	529.22562242337	0
0	5333	530.080544166979	1
0	5334	530.080544166979	2
0	5335	530.22562242337	1
0	5346	531.22562242337	0
0	5352	531.291963032754	1
0	5353	531.291963032754	2
0	5357	532.22562242337	1
0	5363	533.22562242337	0
0	5369	533.460548910393	1
0	5370	533.460548910393	2
0	5371	534.22562242337	1
0	5374	535.22562242337	0
0	5380	535.756882816061	1
0	5381	535.756882816061	2
0	5382	536.22562242337	1
0	5390	537.22562242337	0
0	5399	537.752477381221	1
0	5400	537.752477381221	2
0	5401	538.22562242337	1
0	5412	539.22562242337	0
0	5421	539.734265804027	1
0	5422	539.734265804027	2
0	5428	540.22562242337	1
0	5439	541.22562242337	0
0	5451	541.702103828657	1
0	5452	541.702103828657	2
0	5453	542.22562242337	1
0	5462	543.22562242337	0
0	5468	543.659856095825	1
0	5469	543.659856095825	2
0	5475	544.22562242337	1
0	5486	545.22562242337	0
0	5492	545.272365511067	1
0	5493	545.272365511067	2
0	5505	546.22562242337	1
0	5514	547.22562242337	0
0	5520	547.818061553669	1
0	5521	547.818061553669	2
0	5530	548.22562242337	1
0	5541	549.22562242337	0
0	5547	549.64551455672	1
0	5548	549.64551455672	2
0	5555	550.22562242337	1
0	5571	551.22562242337	0
0	5577	551.58547553669	1
0	5578	551.58547553669	2
0	5585	552.22562242337	1
0	5599	553.22562242337	0
0	5608	554.222585833958	1
0	5609	554.222585833958	2
0	5610	554.22562242337	1
0	5621	555.22562242337	0
0	5627	555.797831597548	1
0	5628	555.797831597548	2
0	5637	556.22562242337	1
0	5651	557.22562242337	0
0	5657	557.368948670715	1
0	5658	557.368948670715	2
0	5670	558.22562242337	1
0	5679	559.22562242337	0
0	5685	559.978187112684	1
0	5686	559.978187112684	2
0	5690	560.22562242337	1
0	5698	561.22562242337	0
0	5704	561.661230336734	1
0	5705	561.661230336734	2
0	5709	562.22562242337	1
0	5725	563.22562242337	0
0	5731	563.509782947465	1
0	5732	563.509782947465	2
0	5749	564.22562242337	1
0	5769	565.22562242337	0
0	5788	566.512834884525	1
0	5792	567.512834884525	0
0	5798	567.703931401666	1
0	5799	567.703931401666	2
0	5800	568.512834884525	1
0	5813	569.512834884525	0
0	5832	570.902817271497	1
0	5836	571.902817271497	0
0	5842	572.30471620977	1
0	5843	572.30471620977	2
0	5849	572.902817271497	1
0	5865	573.902817271497	0
0	5887	575.110901897428	1
0	5891	576.110901897428	0
0	5897	576.362373434247	1
0	5898	576.362373434247	2
0	5899	577.110901897428	1
0	5907	578.110901897428	0
0	5913	578.16762085047	1
0	5914	578.16762085047	2
0	5923	579.110901897428	1
0	5937	580.110901897428	0
0	5956	582.147633590424	1
0	5962	583.147633590424	0
0	5968	583.490893054065	1
0	5969	583.490893054065	2
0	5973	584.147633590424	1
0	5984	585.147633590424	0
0	5997	586.225496849487	1
0	6001	587.225496849487	0
0	6007	587.895511030168	1
0	6008	587.895511030168	2
0	6009	588.225496849487	1
0	6017	589.225496849487	0
0	6023	589.398123771713	1
0	6024	589.398123771713	2
0	6043	590.225496849487	1
0	6055	591.225496849487	0
0	6064	591.751815141497	1
0	6065	591.751815141497	2
0	6072	592.225496849487	1
0	6078	593.225496849487	0
0	6088	594.921453868574	1
0	6094	595.921453868574	0
0	6103	596.624334300819	1
0	6104	596.624334300819	2
0	6105	596.921453868574	1
0	6121	597.921453868574	0
0	6127	598.149796080841	1
0	6128	598.149796080841	2
0	6135	598.921453868574	1
0	6149	599.921453868574	0
0	6162	601.183252161845	1
0	6166	602.183252161845	0
0	6172	602.725952817894	1
0	6173	602.725952817894	2
0	6174	603.183252161845	1
0	6182	604.183252161845	0
0	6188	604.674021343083	1
0	6189	604.674021343083	2
0	6193	605.183252161845	1
0	6199	606.183252161845	0
0	6205	606.505080107732	1
0	6206	606.505080107732	2
0	6207	607.183252161845	1
0	6215	608.183252161845	0
0	6224	608.815539389706	1
0	6225	608.815539389706	2
0	6226	609.183252161845	1
0	6232	610.183252161845	0
0	6238	610.443553425916	1
0	6239	610.443553425916	2
0	6245	611.183252161845	1
0	6251	612.183252161845	0
0	6257	612.285191843741	1
0	6258	612.285191843741	2
0	6267	613.183252161845	1
0	6278	614.183252161845	0
0	6290	615.08033380485	1
0	6291	615.08033380485	2
0	6292	615.183252161845	1
0	6298	616.183252161845	0
0	6304	616.306151257804	1
0	6305	616.306151257804	2
0	6316	617.183252161845	1
0	6330	618.183252161845	0
0	6349	619.809433160594	1
0	6353	620.809433160594	0
0	6359	621.242652264265	1
0	6360	621.242652264265	2
0	6366	621.809433160594	1
0	6377	622.809433160594	0
0	6383	622.989929399509	1
0	6384	622.989929399509	2
0	6391	623.809433160594	1
0	6397	624.809433160594	0
0	6403	624.865502019152	1
0	6404	624.865502019152	2
0	6410	625.809433160594	1
0	6421	626.809433160594	0
0	6430	627.513645477226	1
0	6431	627.513645477226	2
0	6435	627.809433160594	1
0	6441	628.809433160594	0
0	6447	629.603453609339	1
0	6448	629.603453609339	2
0	6449	629.809433160594	1
0	6452	630.809433160594	0
0	6458	631.360275213639	1
0	6459	631.360275213639	2
0	6465	631.809433160594	1
0	6481	632.809433160594	0
0	6490	633.21797871911	1
0	6491	633.21797871911	2
0	6500	633.809433160594	1
0	6514	634.809433160594	0
0	6536	636.09887166985	1
0	6545	637.09887166985	0
0	6558	638.728597886466	1
0	6567	639.728597886466	0
0	6580	640.805954468609	1
0	6584	641.805954468609	0