version 3
run k_MM1_lbqf-5-20221127-16:03:34-25264
attr configname k_MM1_lbqf
attr datetime 20221127-16:03:34
attr datetimef 20221127-160334
attr experiment k_MM1_lbqf
attr inifile omnetpp.ini
attr iterationvars "$time=1.0, $num=5, $0=45732, $1=35463, $2=67563"
attr iterationvarsd time=1.0/num=5/45732/35463/67563
attr iterationvarsf time=1.0,num=5,45732,35463,67563-
attr measurement "$time=1.0, $num=5, $0=45732, $1=35463, $2=67563"
attr network lbqfkMM1
attr processid 25264
attr repetition 1
attr replication #1
attr resultdir results
attr runnumber 5
attr seedset 5
itervar num 5
itervar time 1.0
config description "MM1 module k-times lbqf"
config network lbqfkMM1
config **.interArrivalTime "truncnormal(uniform(0.5s, 1.5s), uniform(0.25s, 0.75s))"
config **.serviceTime 1.0s
config **.c 5
config **.capacity 10000
config record-eventlog false
config **.scalar-recording true
config **.vector-recording true
config repeat 4
config seed-1-mt 45732
config seed-2-mt 35463
config seed-3-mt 67563
config output-vector-file k_MM1_lbqf-5-1.0-results/1.vec
config output-scalar-file k_MM1_lbqf-5-1.0-results/1.sca

vector 0 lbqfkMM1.mm1[0] queueLength:vector ETV
attr interpolationmode none
attr recordingmode vector
attr title "queue length"
vector 1 lbqfkMM1.mm1[1] queueLength:vector ETV
attr interpolationmode none
attr recordingmode vector
attr title "queue length"
vector 2 lbqfkMM1.mm1[0] util:vector ETV
attr interpolationmode none
attr recordingmode vector
attr title resources
vector 3 lbqfkMM1.mm1[1] util:vector ETV
attr interpolationmode none
attr recordingmode vector
attr title resources
vector 4 lbqfkMM1.mm1[2] queueLength:vector ETV
attr interpolationmode none
attr recordingmode vector
attr title "queue length"
vector 5 lbqfkMM1.mm1[2] util:vector ETV
attr interpolationmode none
attr recordingmode vector
attr title resources
vector 6 lbqfkMM1.mm1[3] queueLength:vector ETV
attr interpolationmode none
attr recordingmode vector
attr title "queue length"
vector 7 lbqfkMM1.mm1[3] util:vector ETV
attr interpolationmode none
attr recordingmode vector
attr title resources
vector 8 lbqfkMM1.mm1[4] queueLength:vector ETV
attr interpolationmode none
attr recordingmode vector
attr title "queue length"
vector 9 lbqfkMM1.mm1[4] util:vector ETV
attr interpolationmode none
attr recordingmode vector
attr title resources
0	5	10	1
0	11	11	0
0	24	12.662591751393	1
0	33	13.662591751393	0
0	39	14.079224920438	1
0	40	14.079224920438	2
0	44	14.662591751393	1
0	55	15.662591751393	0
0	61	16.026822939719	1
0	62	16.026822939719	2
0	66	16.662591751393	1
0	77	17.662591751393	0
0	86	18.437181441972	1
0	87	18.437181441972	2
0	88	18.662591751393	1
0	99	19.662591751393	0
0	105	19.993718229036	1
0	106	19.993718229036	2
0	110	20.662591751393	1
0	121	21.662591751393	0
0	127	22.465491943103	1
0	128	22.465491943103	2
0	132	22.662591751393	1
0	143	23.662591751393	0
0	159	25.80858165946	1
0	165	26.80858165946	0
0	174	27.546137429178	1
0	175	27.546137429178	2
0	176	27.80858165946	1
0	187	28.80858165946	0
0	196	29.783428432354	1
0	197	29.783428432354	2
0	198	29.80858165946	1
0	204	30.80858165946	0
0	210	31.638549952244	1
0	211	31.638549952244	2
0	212	31.80858165946	1
0	215	32.80858165946	0
0	221	33.088155424738	1
0	222	33.088155424738	2
0	223	33.80858165946	1
0	231	34.80858165946	0
0	244	36.144187380471	1
0	248	37.144187380471	0
0	258	38.514865003245	1
0	264	39.514865003245	0
0	273	40.442278346385	1
0	274	40.442278346385	2
0	275	40.514865003245	1
0	286	41.514865003245	0
0	292	41.888438339545	1
0	293	41.888438339545	2
0	297	42.514865003245	1
0	308	43.514865003245	0
0	314	44.28234723985	1
0	315	44.28234723985	2
0	319	44.514865003245	1
0	330	45.514865003245	0
0	339	46.505629560511	1
0	340	46.505629560511	2
0	341	46.514865003245	1
0	347	47.514865003245	0
0	357	48.953753234011	1
0	368	49.953753234011	0
0	387	51.082511277374	1
0	396	52.082511277374	0
0	402	52.369010821109	1
0	403	52.369010821109	2
0	407	53.082511277374	1
0	418	54.082511277374	0
0	431	55.148556485068	1
0	435	56.148556485068	0
0	445	58.065507518392	1
0	446	59.065507518392	0
0	452	59.93939648698	1
0	453	59.93939648698	2
0	454	60.065507518392	1
0	467	61.065507518392	0
0	483	62.56499391359	1
0	490	63.56499391359	0
0	496	63.679597552541	1
0	497	63.679597552541	2
0	503	64.56499391359	1
0	519	65.56499391359	0
0	535	66.626246980682	1
0	547	67.626246980682	0
0	556	68.28402823049	1
0	557	68.28402823049	2
0	563	68.626246980682	1
0	577	69.626246980682	0
0	599	71.10591205961	1
0	600	72.10591205961	0
0	606	72.499307907737	1
0	607	72.499307907737	2
0	608	73.10591205961	1
0	616	74.10591205961	0
0	622	74.140958270755	1
0	623	74.140958270755	2
0	627	75.10591205961	1
0	633	76.10591205961	0
0	639	76.118910613953	1
0	640	76.118910613953	2
0	641	77.10591205961	1
0	644	78.10591205961	0
0	650	78.316350630341	1
0	651	78.316350630341	2
0	652	79.10591205961	1
0	665	80.10591205961	0
0	674	80.723408298857	1
0	675	80.723408298857	2
0	679	81.10591205961	1
0	693	82.10591205961	0
0	702	82.809444215968	1
0	703	82.809444215968	2
0	709	83.10591205961	1
0	715	84.10591205961	0
0	721	84.116647387719	1
0	722	84.116647387719	2
0	731	85.10591205961	1
0	745	86.10591205961	0
0	751	86.347830581436	1
0	752	86.347830581436	2
0	759	87.10591205961	1
0	770	88.10591205961	0
0	786	89.749640013959	1
0	792	90.749640013959	0
0	805	91.992640761285	1
0	809	92.992640761285	0
0	815	93.810157999894	1
0	816	93.810157999894	2
0	817	93.992640761285	1
0	820	94.992640761285	0
0	826	95.306157253874	1
0	827	95.306157253874	2
0	828	95.992640761285	1
0	831	96.992640761285	0
0	837	97.08577351502	1
0	838	97.08577351502	2
0	844	97.992640761285	1
0	855	98.992640761285	0
0	874	100.168825957829	1
0	880	101.168825957829	0
0	886	101.455807891013	1
0	887	101.455807891013	2
0	891	102.168825957829	1
0	902	103.168825957829	0
0	908	103.732730022897	1
0	909	103.732730022897	2
0	913	104.168825957829	1
0	919	105.168825957829	0
0	925	105.649503223502	1
0	926	105.649503223502	2
0	927	106.168825957829	1
0	930	107.168825957829	0
0	936	107.233918309099	1
0	937	107.233918309099	2
0	943	108.168825957829	1
0	954	109.168825957829	0
0	970	110.503990107314	1
0	979	111.503990107314	0
0	985	112.179220132121	1
0	986	112.179220132121	2
0	990	112.503990107314	1
0	1001	113.503990107314	0
0	1007	114.206603105087	1
0	1008	114.206603105087	2
0	1012	114.503990107314	1
0	1018	115.503990107314	0
0	1024	115.702657492812	1
0	1025	115.702657492812	2
0	1026	116.503990107314	1
0	1034	117.503990107314	0
0	1040	117.661054275507	1
0	1041	117.661054275507	2
0	1045	118.503990107314	1
0	1056	119.503990107314	0
0	1062	120.012690934911	1
0	1063	120.012690934911	2
0	1067	120.503990107314	1
0	1083	121.503990107314	0
0	1089	121.874368917611	1
0	1090	121.874368917611	2
0	1097	122.503990107314	1
0	1116	123.503990107314	0
0	1132	124.591556793587	1
0	1139	125.591556793587	0
0	1145	126.395309496807	1
0	1146	126.395309496807	2
0	1147	126.591556793587	1
0	1150	127.591556793587	0
0	1156	128.030176312108	1
0	1157	128.030176312108	2
0	1158	128.591556793587	1
0	1166	129.591556793587	0
0	1182	131.552378587603	1
0	1188	132.552378587603	0
0	1194	132.663611949625	1
0	1195	132.663611949625	2
0	1204	133.552378587603	1
0	1228	134.552378587603	0
0	1250	136.190204817634	1
0	1265	137.190204817634	0
0	1271	137.208892585189	1
0	1272	137.208892585189	2
0	1276	138.190204817634	1
0	1287	139.190204817634	0
0	1296	140.03306510642	1
0	1297	140.03306510642	2
0	1298	140.190204817634	1
0	1304	141.190204817634	0
0	1310	141.572811213101	1
0	1311	141.572811213101	2
0	1312	142.190204817634	1
0	1325	143.190204817634	0
0	1344	144.950599856614	1
0	1348	145.950599856614	0
0	1358	147.000698403758	1
0	1359	148.000698403758	0
0	1365	148.174835972555	1
0	1366	148.174835972555	2
0	1367	149.000698403758	1
0	1375	150.000698403758	0
0	1381	150.563059401939	1
0	1382	150.563059401939	2
0	1386	151.000698403758	1
0	1397	152.000698403758	0
0	1406	152.8971270026	1
0	1407	152.8971270026	2
0	1408	153.000698403758	1
0	1419	154.000698403758	0
0	1425	154.157112485957	1
0	1426	154.157112485957	2
0	1430	155.000698403758	1
0	1441	156.000698403758	0
0	1447	156.076534676685	1
0	1448	156.076534676685	2
0	1452	157.000698403758	1
0	1458	158.000698403758	0
0	1464	158.352932438217	1
0	1465	158.352932438217	2
0	1471	159.000698403758	1
0	1477	160.000698403758	0
0	1483	160.538942102634	1
0	1484	160.538942102634	2
0	1488	161.000698403758	1
0	1496	162.000698403758	0
0	1502	162.021682421778	1
0	1503	162.021682421778	2
0	1512	163.000698403758	1
0	1523	164.000698403758	0
0	1535	164.856760634435	1
0	1536	164.856760634435	2
0	1537	165.000698403758	1
0	1556	166.000698403758	0
0	1562	166.143191379281	1
0	1563	166.143191379281	2
0	1570	167.000698403758	1
0	1579	168.000698403758	0
0	1585	168.241026414131	1
0	1586	168.241026414131	2
0	1587	169.000698403758	1
0	1595	170.000698403758	0
0	1601	170.265889251192	1
0	1602	170.265889251192	2
0	1606	171.000698403758	1
0	1617	172.000698403758	0
0	1623	172.579155532791	1
0	1624	172.579155532791	2
0	1628	173.000698403758	1
0	1639	174.000698403758	0
0	1648	174.810310529795	1
0	1649	174.810310529795	2
0	1650	175.000698403758	1
0	1661	176.000698403758	0
0	1667	176.135827530274	1
0	1668	176.135827530274	2
0	1672	177.000698403758	1
0	1683	178.000698403758	0
0	1696	179.373378679562	1
0	1705	180.373378679562	0
0	1711	180.971931532486	1
0	1712	180.971931532486	2
0	1716	181.373378679562	1
0	1727	182.373378679562	0
0	1733	182.426938218526	1
0	1734	182.426938218526	2
0	1738	183.373378679562	1
0	1749	184.373378679562	0
0	1762	185.858160043171	1
0	1766	186.858160043171	0
0	1772	187.770761987142	1
0	1773	187.770761987142	2
0	1774	187.858160043171	1
0	1787	188.858160043171	0
0	1793	189.233781693752	1
0	1794	189.233781693752	2
0	1801	189.858160043171	1
0	1815	190.858160043171	0
0	1824	191.530090152734	1
0	1825	191.530090152734	2
0	1826	191.858160043171	1
0	1832	192.858160043171	0
0	1838	193.181050296559	1
0	1839	193.181050296559	2
0	1840	193.858160043171	1
0	1843	194.858160043171	0
0	1849	195.572323408472	1
0	1850	195.572323408472	2
0	1851	195.858160043171	1
0	1859	196.858160043171	0
0	1872	198.172667337914	1
0	1876	199.172667337914	0
0	1882	199.245741089788	1
0	1883	199.245741089788	2
0	1889	200.172667337914	1
0	1905	201.172667337914	0
0	1927	202.876707335607	1
0	1936	203.876707335607	0
0	1942	203.956688644337	1
0	1943	203.956688644337	2
0	1947	204.876707335607	1
0	1963	205.876707335607	0
0	1979	206.966844282063	1
0	1991	207.966844282063	0
0	1997	208.473298149248	1
0	1998	208.473298149248	2
0	2002	208.966844282063	1
0	2008	209.966844282063	0
0	2014	210.103870069996	1
0	2015	210.103870069996	2
0	2016	210.966844282063	1
0	2024	211.966844282063	0
0	2030	212.179221076306	1
0	2031	212.179221076306	2
0	2035	212.966844282063	1
0	2046	213.966844282063	0
0	2059	215.63942831093	1
0	2068	216.63942831093	0
0	2084	218.70732926246	1
0	2090	219.70732926246	0
0	2103	220.725729162307	1
0	2107	221.725729162307	0
0	2113	222.205085385535	1
0	2114	222.205085385535	2
0	2115	222.725729162307	1
0	2123	223.725729162307	0
0	2129	224.513092280002	1
0	2130	224.513092280002	2
0	2134	224.725729162307	1
0	2145	225.725729162307	0
0	2151	226.20649056666	1
0	2152	226.20649056666	2
0	2156	226.725729162307	1
0	2162	227.725729162307	0
0	2168	227.779385575769	1
0	2169	227.779385575769	2
0	2170	228.725729162307	1
0	2178	229.725729162307	0
0	2184	229.876331770156	1
0	2185	229.876331770156	2
0	2194	230.725729162307	1
0	2200	231.725729162307	0
0	2209	232.242024613734	1
0	2210	232.242024613734	2
0	2211	232.725729162307	1
0	2222	233.725729162307	0
0	2231	234.213784283793	1
0	2232	234.213784283793	2
0	2233	234.725729162307	1
0	2244	235.725729162307	0
0	2257	236.984488053323	1
0	2261	237.984488053323	0
0	2267	238.0497083608	1
0	2268	238.0497083608	2
0	2274	238.984488053323	1
0	2285	239.984488053323	0
0	2291	240.342512166567	1
0	2292	240.342512166567	2
0	2301	240.984488053323	1
0	2320	241.984488053323	0
0	2339	243.286602803251	1
0	2346	244.286602803251	0
0	2355	244.914812457948	1
0	2356	244.914812457948	2
0	2357	245.286602803251	1
0	2365	246.286602803251	0
0	2371	246.906351203545	1
0	2372	246.906351203545	2
0	2376	247.286602803251	1
0	2392	248.286602803251	0
0	2408	249.937842534869	1
0	2420	250.937842534869	0
0	2433	252.10474755055	1
0	2442	253.10474755055	0
0	2448	253.609501633263	1
0	2449	253.609501633263	2
0	2453	254.10474755055	1
0	2469	255.10474755055	0
0	2475	255.771176571344	1
0	2476	255.771176571344	2
0	2483	256.10474755055	1
0	2492	257.10474755055	0
0	2498	257.114958851087	1
0	2499	257.114958851087	2
0	2500	258.10474755055	1
0	2508	259.10474755055	0
0	2517	259.778821974018	1
0	2518	259.778821974018	2
0	2519	260.10474755055	1
0	2530	261.10474755055	0
0	2539	261.965028066882	1
0	2540	261.965028066882	2
0	2541	262.10474755055	1
0	2552	263.10474755055	0
0	2561	263.961424570718	1
0	2562	263.961424570718	2
0	2563	264.10474755055	1
0	2579	265.10474755055	0
0	2595	266.148267882057	1
0	2612	267.148267882057	0
0	2621	267.969428822215	1
0	2622	267.969428822215	2
0	2626	268.148267882057	1
0	2645	269.148267882057	0
0	2667	271.478713056692	1
0	2668	272.478713056692	0
0	2674	272.908582525755	1
0	2675	272.908582525755	2
0	2676	273.478713056692	1
0	2684	274.478713056692	0
0	2693	275.101480367716	1
0	2694	275.101480367716	2
0	2695	275.478713056692	1
0	2701	276.478713056692	0
0	2707	276.643595062592	1
0	2708	276.643595062592	2
0	2714	277.478713056692	1
0	2720	278.478713056692	0
0	2726	278.497882344227	1
0	2727	278.497882344227	2
0	2731	279.478713056692	1
0	2734	280.478713056692	0
0	2740	280.520174436798	1
0	2741	280.520174436798	2
0	2747	281.478713056692	1
0	2758	282.478713056692	0
0	2771	283.569361095146	1
0	2780	284.569361095146	0
0	2793	285.607096251691	1
0	2797	286.607096251691	0
0	2806	286.881337396274	1
0	2807	286.881337396274	2
0	2808	287.607096251691	1
0	2816	288.607096251691	0
0	2825	289.164654685651	1
0	2826	289.164654685651	2
0	2827	289.607096251691	1
0	2843	290.607096251691	0
0	2852	291.122285141331	1
0	2853	291.122285141331	2
0	2857	291.607096251691	1
0	2871	292.607096251691	0
0	2884	293.906570267304	1
0	2888	294.906570267304	0
0	2894	294.925790532047	1
0	2895	294.925790532047	2
0	2901	295.906570267304	1
0	2907	296.906570267304	0
0	2916	297.245561618428	1
0	2917	297.245561618428	2
0	2918	297.906570267304	1
0	2926	298.906570267304	0
0	2939	300.441602096446	1
0	2943	301.441602096446	0
0	2953	302.462072659337	1
0	2959	303.462072659337	0
0	2968	303.986755325608	1
0	2969	303.986755325608	2
0	2970	304.462072659337	1
0	2986	305.462072659337	0
0	2992	305.855458597917	1
0	2993	305.855458597917	2
0	3000	306.462072659337	1
0	3019	307.462072659337	0
0	3025	308.077749294318	1
0	3026	308.077749294318	2
0	3033	308.462072659337	1
0	3052	309.462072659337	0
0	3058	309.83133579129	1
0	3059	309.83133579129	2
0	3066	310.462072659337	1
0	3075	311.462072659337	0
0	3081	311.759728486305	1
0	3082	311.759728486305	2
0	3083	312.462072659337	1
0	3091	313.462072659337	0
0	3100	314.241749001948	1
0	3101	314.241749001948	2
0	3102	314.462072659337	1
0	3113	315.462072659337	0
0	3126	316.884423370132	1
0	3135	317.884423370132	0
0	3144	318.809166624568	1
0	3145	318.809166624568	2
0	3146	318.884423370132	1
0	3152	319.884423370132	0
0	3158	320.119795342433	1
0	3159	320.119795342433	2
0	3165	320.884423370132	1
0	3176	321.884423370132	0
0	3182	322.103461659314	1
0	3183	322.103461659314	2
0	3190	322.884423370132	1
0	3211	323.884423370132	0
0	3233	325.141000474985	1
0	3245	326.141000474985	0
0	3258	327.600097865342	1
0	3267	328.600097865342	0
0	3280	329.872694057209	1
0	3284	330.872694057209	0
0	3290	331.402134238114	1
0	3291	331.402134238114	2
0	3292	331.872694057209	1
0	3295	332.872694057209	0
0	3301	332.956151194384	1
0	3302	332.956151194384	2
0	3303	333.872694057209	1
0	3311	334.872694057209	0
0	3324	336.247564756757	1
0	3333	337.247564756757	0
0	3346	338.852884772172	1
0	3350	339.852884772172	0
0	3360	340.982796037768	1
0	3361	341.982796037768	0
0	3367	342.375718705265	1
0	3368	342.375718705265	2
0	3374	342.982796037768	1
0	3385	343.982796037768	0
0	3391	344.265295684061	1
0	3392	344.265295684061	2
0	3404	344.982796037768	1
0	3418	345.982796037768	0
0	3430	346.912080021097	1
0	3431	346.912080021097	2
0	3432	346.982796037768	1
0	3443	347.982796037768	0
0	3449	348.800351389688	1
0	3450	348.800351389688	2
0	3454	348.982796037768	1
0	3460	349.982796037768	0
0	3466	350.476216213257	1
0	3467	350.476216213257	2
0	3468	350.982796037768	1
0	3481	351.982796037768	0
0	3503	354.015428105592	1
0	3504	355.015428105592	0
0	3510	355.361372393547	1
0	3511	355.361372393547	2
0	3512	356.015428105592	1
0	3525	357.015428105592	0
0	3534	357.180200722976	1
0	3535	357.180200722976	2
0	3544	358.015428105592	1
0	3558	359.015428105592	0
0	3567	359.212220747283	1
0	3568	359.212220747283	2
0	3572	360.015428105592	1
0	3586	361.015428105592	0
0	3595	361.843183044013	1
0	3596	361.843183044013	2
0	3597	362.015428105592	1
0	3603	363.015428105592	0
0	3609	363.971861035825	1
0	3610	363.971861035825	2
0	3611	364.015428105592	1
0	3614	365.015428105592	0
0	3620	365.533867583959	1
0	3621	365.533867583959	2
0	3622	366.015428105592	1
0	3630	367.015428105592	0
0	3636	367.073224284827	1
0	3637	367.073224284827	2
0	3641	368.015428105592	1
0	3652	369.015428105592	0
0	3658	369.044700555843	1
0	3659	369.044700555843	2
0	3663	370.015428105592	1
0	3674	371.015428105592	0
0	3680	371.368827523881	1
0	3681	371.368827523881	2
0	3685	372.015428105592	1
0	3696	373.015428105592	0
0	3705	373.983689006567	1
0	3706	373.983689006567	2
0	3707	374.015428105592	1
0	3713	375.015428105592	0
0	3719	375.040735781032	1
0	3720	375.040735781032	2
0	3731	376.015428105592	1
0	3740	377.015428105592	0
0	3749	377.347001993432	1
0	3750	377.347001993432	2
0	3759	378.015428105592	1
0	3770	379.015428105592	0
0	3776	379.321026610606	1
0	3777	379.321026610606	2
0	3781	380.015428105592	1
0	3792	381.015428105592	0
0	3798	381.494696967863	1
0	3799	381.494696967863	2
0	3808	382.015428105592	1
0	3822	383.015428105592	0
0	3828	383.241497047519	1
0	3829	383.241497047519	2
0	3836	384.015428105592	1
0	3847	385.015428105592	0
0	3853	385.049394703149	1
0	3854	385.049394703149	2
0	3871	386.015428105592	1
0	3885	387.015428105592	0
0	3907	388.39065521841	1
0	3911	389.39065521841	0
0	3917	389.712400573449	1
0	3918	389.712400573449	2
0	3919	390.39065521841	1
0	3922	391.39065521841	0
0	3928	391.576915608121	1
0	3929	391.576915608121	2
0	3930	392.39065521841	1
0	3938	393.39065521841	0
0	3951	394.557698988883	1
0	3955	395.557698988883	0
0	3961	396.077897947057	1
0	3962	396.077897947057	2
0	3963	396.557698988883	1
0	3971	397.557698988883	0
0	3980	398.17833874389	1
0	3981	398.17833874389	2
0	3982	398.557698988883	1
0	3993	399.557698988883	0
0	3999	400.187322545787	1
0	4000	400.187322545787	2
0	4004	400.557698988883	1
0	4015	401.557698988883	0
0	4024	402.408861873529	1
0	4025	402.408861873529	2
0	4026	402.557698988883	1
0	4037	403.557698988883	0
0	4043	403.749356693096	1
0	4044	403.749356693096	2
0	4048	404.557698988883	1
0	4059	405.557698988883	0
0	4065	405.70196648874	1
0	4066	405.70196648874	2
0	4075	406.557698988883	1
0	4086	407.557698988883	0
0	4102	408.753988484074	1
0	4114	409.753988484074	0
0	4120	409.977867311709	1
0	4121	409.977867311709	2
0	4130	410.753988484074	1
0	4141	411.753988484074	0
0	4147	412.47630683989	1
0	4148	412.47630683989	2
0	4155	412.753988484074	1
0	4169	413.753988484074	0
0	4178	414.664388526741	1
0	4179	414.664388526741	2
0	4180	414.753988484074	1
0	4186	415.753988484074	0
0	4192	415.803254241054	1
0	4193	415.803254241054	2
0	4194	416.753988484074	1
0	4202	417.753988484074	0
0	4215	418.857284509341	1
0	4219	419.857284509341	0
0	4225	420.180039212419	1
0	4226	420.180039212419	2
0	4227	420.857284509341	1
0	4235	421.857284509341	0
0	4248	422.92566601684	1
0	4257	423.92566601684	0
0	4263	424.656442650432	1
0	4264	424.656442650432	2
0	4268	424.92566601684	1
0	4279	425.92566601684	0
0	4285	426.04799903997	1
0	4286	426.04799903997	2
0	4295	426.92566601684	1
0	4309	427.92566601684	0
0	4315	428.504697110146	1
0	4316	428.504697110146	2
0	4323	428.92566601684	1
0	4334	429.92566601684	0
0	4340	430.260919343784	1
0	4341	430.260919343784	2
0	4345	430.92566601684	1
0	4356	431.92566601684	0
0	4362	432.307096287264	1
0	4363	432.307096287264	2
0	4367	432.92566601684	1
0	4378	433.92566601684	0
0	4384	434.348054274879	1
0	4385	434.348054274879	2
0	4389	434.92566601684	1
0	4400	435.92566601684	0
0	4406	436.322521028911	1
0	4407	436.322521028911	2
0	4411	436.92566601684	1
0	4427	437.92566601684	0
0	4449	440.103728268393	1
0	4455	441.103728268393	0
0	4468	442.211514085323	1
0	4477	443.211514085323	0
0	4490	444.600565026001	1
0	4494	445.600565026001	0
0	4504	446.85138512594	1
0	4510	447.85138512594	0
0	4523	449.561701563263	1
0	4527	450.561701563263	0
0	4533	451.446476318677	1
0	4534	451.446476318677	2
0	4535	451.561701563263	1
0	4538	452.561701563263	0
0	4544	452.601702291562	1
0	4545	452.601702291562	2
0	4546	453.561701563263	1
0	4554	454.561701563263	0
0	4563	455.066940330167	1
0	4564	455.066940330167	2
0	4565	455.561701563263	1
0	4576	456.561701563263	0
0	4585	457.118252575403	1
0	4586	457.118252575403	2
0	4587	457.561701563263	1
0	4598	458.561701563263	0
0	4604	458.593649537838	1
0	4605	458.593649537838	2
0	4609	459.561701563263	1
0	4625	460.561701563263	0
0	4641	461.714826230532	1
0	4648	462.714826230532	0
0	4654	462.789886411966	1
0	4655	462.789886411966	2
0	4661	463.714826230532	1
0	4667	464.714826230532	0
0	4673	464.889009163502	1
0	4674	464.889009163502	2
0	4678	465.714826230532	1
0	4686	466.714826230532	0
0	4692	466.915105324637	1
0	4693	466.915105324637	2
0	4697	467.714826230532	1
0	4708	468.714826230532	0
0	4714	469.15338640532	1
0	4715	469.15338640532	2
0	4724	469.714826230532	1
0	4730	470.714826230532	0
0	4736	470.9103131474	1
0	4737	470.9103131474	2
0	4741	471.714826230532	1
0	4757	472.714826230532	0
0	4763	473.105763368643	1
0	4764	473.105763368643	2
0	4771	473.714826230532	1
0	4780	474.714826230532	0
0	4786	475.629025846097	1
0	4787	475.629025846097	2
0	4788	475.714826230532	1
0	4796	476.714826230532	0
0	4802	477.368500363865	1
0	4803	477.368500363865	2
0	4807	477.714826230532	1
0	4818	478.714826230532	0
0	4831	480.09106533675	1
0	4835	481.09106533675	0
0	4841	481.220736464756	1
0	4842	481.220736464756	2
0	4848	482.09106533675	1
0	4854	483.09106533675	0
0	4860	483.517741511045	1
0	4861	483.517741511045	2
0	4870	484.09106533675	1
0	4881	485.09106533675	0
0	4890	485.347953022879	1
0	4891	485.347953022879	2
0	4895	486.09106533675	1
0	4906	487.09106533675	0
0	4915	487.532847795174	1
0	4916	487.532847795174	2
0	4917	488.09106533675	1
0	4928	489.09106533675	0
0	4934	489.430681045588	1
0	4935	489.430681045588	2
0	4939	490.09106533675	1
0	4950	491.09106533675	0
0	4956	491.871801436213	1
0	4957	491.871801436213	2
0	4961	492.09106533675	1
0	4972	493.09106533675	0
0	4978	493.414211794276	1
0	4979	493.414211794276	2
0	4988	494.09106533675	1
0	5002	495.09106533675	0
0	5008	495.547645372804	1
0	5009	495.547645372804	2
0	5016	496.09106533675	1
0	5022	497.09106533675	0
0	5028	497.132459781818	1
0	5029	497.132459781818	2
0	5040	498.09106533675	1
0	5049	499.09106533675	0
0	5061	500.074927770174	1
0	5062	500.074927770174	2
0	5063	500.09106533675	1
0	5066	501.09106533675	0
0	5072	501.26787513172	1
0	5073	501.26787513172	2
0	5074	502.09106533675	1
0	5087	503.09106533675	0
0	5096	503.590286883116	1
0	5097	503.590286883116	2
0	5101	504.09106533675	1
0	5115	505.09106533675	0
0	5128	506.13792752209	1
0	5132	507.13792752209	0
0	5138	507.203345426899	1
0	5139	507.203345426899	2
0	5145	508.13792752209	1
0	5156	509.13792752209	0
0	5172	510.168236884166	1
0	5176	511.168236884166	0
0	5182	511.625800549724	1
0	5183	511.625800549724	2
0	5189	512.168236884166	1
0	5195	513.168236884166	0
0	5201	514.097077605017	1
0	5202	514.097077605017	2
0	5206	514.168236884166	1
0	5214	515.168236884166	0
0	5220	515.559423558133	1
0	5221	515.559423558133	2
0	5225	516.168236884166	1
0	5236	517.168236884166	0
0	5249	518.41564396075	1
0	5258	519.41564396075	0
0	5264	520.010374170885	1
0	5265	520.010374170885	2
0	5269	520.41564396075	1
0	5280	521.41564396075	0
0	5286	522.064773997539	1
0	5287	522.064773997539	2
0	5291	522.41564396075	1
0	5302	523.41564396075	0
0	5315	524.56415200313	1
0	5329	525.56415200313	0
0	5335	525.852137174115	1
0	5336	525.852137174115	2
0	5343	526.56415200313	1
0	5357	527.56415200313	0
0	5370	528.641894607874	1
0	5374	529.641894607874	0
0	5380	529.97411298668	1
0	5381	529.97411298668	2
0	5382	530.641894607874	1
0	5385	531.641894607874	0
0	5391	531.777867597133	1
0	5392	531.777867597133	2
0	5398	532.641894607874	1
0	5414	533.641894607874	0
0	5436	535.087740242466	1
0	5445	536.087740242466	0
0	5458	537.328192307543	1
0	5467	538.328192307543	0
0	5480	539.584992244965	1
0	5484	540.584992244965	0
0	5490	540.833459559265	1
0	5491	540.833459559265	2
0	5492	541.584992244965	1
0	5500	542.584992244965	0
0	5513	543.587895925369	1
0	5517	544.587895925369	0
0	5523	545.289595425153	1
0	5524	545.289595425153	2
0	5525	545.587895925369	1
0	5528	546.587895925369	0
0	5534	546.768863072972	1
0	5535	546.768863072972	2
0	5536	547.587895925369	1
0	5544	548.587895925369	0
0	5550	548.67291965085	1
0	5551	548.67291965085	2
0	5555	549.587895925369	1
0	5566	550.587895925369	0
0	5572	551.31149168324	1
0	5573	551.31149168324	2
0	5577	551.587895925369	1
0	5583	552.587895925369	0
0	5589	552.710594298673	1
0	5590	552.710594298673	2
0	5596	553.587895925369	1
0	5602	554.587895925369	0
0	5608	554.623926571839	1
0	5609	554.623926571839	2
0	5618	555.587895925369	1
0	5629	556.587895925369	0
0	5635	556.997598377861	1
0	5636	556.997598377861	2
0	5643	557.587895925369	1
0	5654	558.587895925369	0
0	5663	559.323608499327	1
0	5664	559.323608499327	2
0	5665	559.587895925369	1
0	5671	560.587895925369	0
0	5677	561.417759179931	1
0	5678	561.417759179931	2
0	5679	561.587895925369	1
0	5682	562.587895925369	0
0	5688	562.850117903061	1
0	5689	562.850117903061	2
0	5690	563.587895925369	1
0	5698	564.587895925369	0
0	5707	565.065644401521	1
0	5708	565.065644401521	2
0	5709	565.587895925369	1
0	5720	566.587895925369	0
0	5726	566.701472262284	1
0	5727	566.701472262284	2
0	5736	567.587895925369	1
0	5742	568.587895925369	0
0	5751	569.240404587576	1
0	5752	569.240404587576	2
0	5753	569.587895925369	1
0	5764	570.587895925369	0
0	5770	571.290521746282	1
0	5771	571.290521746282	2
0	5775	571.587895925369	1
0	5781	572.587895925369	0
0	5787	573.360618645281	1
0	5788	573.360618645281	2
0	5789	573.587895925369	1
0	5797	574.587895925369	0
0	5806	575.228626212695	1
0	5807	575.228626212695	2
0	5808	575.587895925369	1
0	5819	576.587895925369	0
0	5828	577.278525224153	1
0	5829	577.278525224153	2
0	5830	577.587895925369	1
0	5846	578.587895925369	0
0	5852	578.935637161103	1
0	5853	578.935637161103	2
0	5860	579.587895925369	1
0	5874	580.587895925369	0
0	5880	581.064204974643	1
0	5881	581.064204974643	2
0	5885	581.587895925369	1
0	5891	582.587895925369	0
0	5897	582.658101134657	1
0	5898	582.658101134657	2
0	5899	583.587895925369	1
0	5907	584.587895925369	0
0	5916	585.427076036864	1
0	5917	585.427076036864	2
0	5918	585.587895925369	1
0	5924	586.587895925369	0
0	5934	587.763309541647	1
0	5935	588.763309541647	0
0	5941	589.044976078806	1
0	5942	589.044976078806	2
0	5943	589.763309541647	1
0	5956	590.763309541647	0
0	5965	591.174474367377	1
0	5966	591.174474367377	2
0	5970	591.763309541647	1
0	5979	592.763309541647	0
0	5985	592.834125835979	1
0	5986	592.834125835979	2
0	5992	593.763309541647	1
0	6013	594.763309541647	0
0	6019	594.89411414411	1
0	6020	594.89411414411	2
0	6035	595.763309541647	1
0	6052	596.763309541647	0
0	6061	597.079079583608	1
0	6062	597.079079583608	2
0	6066	597.763309541647	1
0	6080	598.763309541647	0
0	6089	599.753089167598	1
0	6090	599.753089167598	2
0	6091	599.763309541647	1
0	6102	600.763309541647	0
0	6118	602.040045725394	1
0	6122	603.040045725394	0
0	6128	603.083453117288	1
0	6129	603.083453117288	2
0	6135	604.040045725394	1
0	6146	605.040045725394	0
0	6155	605.663133171099	1
0	6156	605.663133171099	2
0	6160	606.040045725394	1
0	6176	607.040045725394	0
0	6182	607.297214839391	1
0	6183	607.297214839391	2
0	6190	608.040045725394	1
0	6204	609.040045725394	0
0	6217	610.09664416622	1
0	6221	611.09664416622	0
0	6227	611.099837513796	1
0	6228	611.099837513796	2
0	6234	612.09664416622	1
0	6240	613.09664416622	0
0	6246	613.502967813115	1
0	6247	613.502967813115	2
0	6251	614.09664416622	1
0	6259	615.09664416622	0
0	6265	615.487675419283	1
0	6266	615.487675419283	2
0	6270	616.09664416622	1
0	6276	617.09664416622	0
0	6282	617.292247942868	1
0	6283	617.292247942868	2
0	6289	618.09664416622	1
0	6295	619.09664416622	0
0	6301	619.182684490274	1
0	6302	619.182684490274	2
0	6306	620.09664416622	1
0	6309	621.09664416622	0
0	6315	621.32645287264	1
0	6316	621.32645287264	2
0	6322	622.09664416622	1
0	6333	623.09664416622	0
0	6346	624.355338071202	1
0	6350	625.355338071202	0
0	6359	625.716516142416	1
0	6360	625.716516142416	2
0	6361	626.355338071202	1
0	6369	627.355338071202	0
0	6385	628.786498757462	1
0	6391	629.786498757462	0
0	6400	630.455019471707	1
0	6401	630.455019471707	2
0	6402	630.786498757462	1
0	6413	631.786498757462	0
0	6419	632.367243059058	1
0	6420	632.367243059058	2
0	6424	632.786498757462	1
0	6435	633.786498757462	0
0	6448	635.305611368832	1
0	6452	636.305611368832	0
0	6458	636.355994625556	1
0	6459	636.355994625556	2
0	6465	637.305611368832	1
0	6476	638.305611368832	0
0	6492	639.437999117753	1
0	6496	640.437999117753	0
0	6502	640.856833350708	1
0	6503	640.856833350708	2
0	6509	641.437999117753	1
0	6520	642.437999117753	0
0	6526	642.578370397158	1
0	6527	642.578370397158	2
0	6539	643.437999117753	1
0	6553	644.437999117753	0
0	6566	645.910136918404	1
0	6570	646.910136918404	0
0	6579	647.302523531969	1
0	6580	647.302523531969	2
0	6581	647.910136918404	1
0	6589	648.910136918404	0
0	6605	650.778770547367	1
0	6611	651.778770547367	0
0	6617	652.150717317353	1
0	6618	652.150717317353	2
0	6622	652.778770547367	1
0	6633	653.778770547367	0
0	6646	654.966926047953	1
0	6655	655.966926047953	0
0	6668	657.148335361959	1
0	6677	658.148335361959	0
0	6690	659.255281230647	1
0	6704	660.255281230647	0
0	6713	660.757141496878	1
0	6714	660.757141496878	2