version 3
run k_MM1_lbqf-6-20221127-16:03:34-25264
attr configname k_MM1_lbqf
attr datetime 20221127-16:03:34
attr datetimef 20221127-160334
attr experiment k_MM1_lbqf
attr inifile omnetpp.ini
attr iterationvars "$time=1.0, $num=5, $0=47853, $1=24674, $2=96433"
attr iterationvarsd time=1.0/num=5/47853/24674/96433
attr iterationvarsf time=1.0,num=5,47853,24674,96433-
attr measurement "$time=1.0, $num=5, $0=47853, $1=24674, $2=96433"
attr network lbqfkMM1
attr processid 25264
attr repetition 2
attr replication #2
attr resultdir results
attr runnumber 6
attr seedset 6
itervar num 5
itervar time 1.0
config description "MM1 module k-times lbqf"
config network lbqfkMM1
config **.interArrivalTime "truncnormal(uniform(0.5s, 1.5s), uniform(0.25s, 0.75s))"
config **.serviceTime 1.0s
config **.c 5
config **.capacity 10000
config record-eventlog false
config **.scalar-recording true
config **.vector-recording true
config repeat 4
config seed-1-mt 47853
config seed-2-mt 24674
config seed-3-mt 96433
config output-vector-file k_MM1_lbqf-5-1.0-results/2.vec
config output-scalar-file k_MM1_lbqf-5-1.0-results/2.sca

vector 0 lbqfkMM1.mm1[0] queueLength:vector ETV
attr interpolationmode none
attr recordingmode vector
attr title "queue length"
vector 1 lbqfkMM1.mm1[0] util:vector ETV
attr interpolationmode none
attr recordingmode vector
attr title resources
vector 2 lbqfkMM1.mm1[1] queueLength:vector ETV
attr interpolationmode none
attr recordingmode vector
attr title "queue length"
vector 3 lbqfkMM1.mm1[1] util:vector ETV
attr interpolationmode none
attr recordingmode vector
attr title resources
vector 4 lbqfkMM1.mm1[2] queueLength:vector ETV
attr interpolationmode none
attr recordingmode vector
attr title "queue length"
vector 5 lbqfkMM1.mm1[2] util:vector ETV
attr interpolationmode none
attr recordingmode vector
attr title resources
vector 6 lbqfkMM1.mm1[3] queueLength:vector ETV
attr interpolationmode none
attr recordingmode vector
attr title "queue length"
vector 7 lbqfkMM1.mm1[3] util:vector ETV
attr interpolationmode none
attr recordingmode vector
attr title resources
vector 8 lbqfkMM1.mm1[4] queueLength:vector ETV
attr interpolationmode none
attr recordingmode vector
attr title "queue length"
vector 9 lbqfkMM1.mm1[4] util:vector ETV
attr interpolationmode none
attr recordingmode vector
attr title resources
0	5	10	1
0	6	11	0
0	12	11.556882469896	1
0	13	11.556882469896	2
0	14	12	1
0	22	13	0
0	35	14.239024245857	1
0	44	15.239024245857	0
0	53	15.849565775284	1
0	54	15.849565775284	2
0	60	16.239024245857	1
0	66	17.239024245857	0
0	72	17.288756130768	1
0	73	17.288756130768	2
0	77	18.239024245857	1
0	83	19.239024245857	0
0	89	20.032343321979	1
0	90	20.032343321979	2
0	91	20.239024245857	1
0	99	21.239024245857	0
0	105	21.339199314695	1
0	106	21.339199314695	2
0	110	22.239024245857	1
0	126	23.239024245857	0
0	132	23.921585097638	1
0	133	23.921585097638	2
0	140	24.239024245857	1
0	154	25.239024245857	0
0	160	25.687322065459	1
0	161	25.687322065459	2
0	165	26.239024245857	1
0	176	27.239024245857	0
0	182	28.005739179949	1
0	183	28.005739179949	2
0	187	28.239024245857	1
0	193	29.239024245857	0
0	203	30.34888511142	1
0	214	31.34888511142	0
0	226	32.242770604536	1
0	227	32.242770604536	2
0	228	32.34888511142	1
0	237	33.34888511142	0
0	243	34.156907847093	1
0	244	34.156907847093	2
0	245	34.34888511142	1
0	253	35.34888511142	0
0	262	36.204106674536	1
0	263	36.204106674536	2
0	269	36.34888511142	1
0	280	37.34888511142	0
0	286	37.827375588736	1
0	287	37.827375588736	2
0	294	38.34888511142	1
0	313	39.34888511142	0
0	319	39.762413348969	1
0	320	39.762413348969	2
0	327	40.34888511142	1
0	341	41.34888511142	0
0	347	41.779774329092	1
0	348	41.779774329092	2
0	352	42.34888511142	1
0	358	43.34888511142	0
0	364	43.867349300463	1
0	365	43.867349300463	2
0	366	44.34888511142	1
0	384	45.34888511142	0
0	399	46.193841279646	1
0	400	46.193841279646	2
0	401	46.34888511142	1
0	418	47.34888511142	0
0	424	47.699939890422	1
0	425	47.699939890422	2
0	429	48.34888511142	1
0	445	49.34888511142	0
0	451	49.597567334101	1
0	452	49.597567334101	2
0	459	50.34888511142	1
0	473	51.34888511142	0
0	482	52.160069615846	1
0	483	52.160069615846	2
0	484	52.34888511142	1
0	490	53.34888511142	0
0	496	53.836556825423	1
0	497	53.836556825423	2
0	498	54.34888511142	1
0	511	55.34888511142	0
0	517	55.643565233452	1
0	518	55.643565233452	2
0	525	56.34888511142	1
0	539	57.34888511142	0
0	545	57.382466211449	1
0	546	57.382466211449	2
0	550	58.34888511142	1
0	561	59.34888511142	0
0	574	60.352176694682	1
0	578	61.352176694682	0
0	584	62.005722412017	1
0	585	62.005722412017	2
0	586	62.352176694682	1
0	599	63.352176694682	0
0	621	65.30162356627	1
0	627	66.30162356627	0
0	640	67.65768279489	1
0	644	68.65768279489	0
0	650	69.073044761607	1
0	651	69.073044761607	2
0	657	69.65768279489	1
0	668	70.65768279489	0
0	674	71.058860903947	1
0	675	71.058860903947	2
0	682	71.65768279489	1
0	693	72.65768279489	0
0	699	73.199204883443	1
0	700	73.199204883443	2
0	704	73.65768279489	1
0	715	74.65768279489	0
0	721	74.874197521182	1
0	722	74.874197521182	2
0	726	75.65768279489	1
0	737	76.65768279489	0
0	743	76.859984816462	1
0	744	76.859984816462	2
0	748	77.65768279489	1
0	759	78.65768279489	0
0	768	79.614846674547	1
0	769	79.614846674547	2
0	770	79.65768279489	1
0	781	80.65768279489	0
0	794	82.265520037255	1
0	803	83.265520037255	0
0	812	83.492207943841	1
0	813	83.492207943841	2
0	814	84.265520037255	1
0	830	85.265520037255	0
0	842	86.161065191519	1
0	843	86.161065191519	2
0	844	86.265520037255	1
0	853	87.265520037255	0
0	859	87.681681187812	1
0	860	87.681681187812	2
0	861	88.265520037255	1
0	874	89.265520037255	0
0	883	89.736176657436	1
0	884	89.736176657436	2
0	893	90.265520037255	1
0	902	91.265520037255	0
0	911	91.751417517875	1
0	912	91.751417517875	2
0	913	92.265520037255	1
0	924	93.265520037255	0
0	937	94.350665443091	1
0	946	95.350665443091	0
0	955	96.337099439258	1
0	956	96.337099439258	2
0	957	96.350665443091	1
0	968	97.350665443091	0
0	974	97.806114886057	1
0	975	97.806114886057	2
0	979	98.350665443091	1
0	990	99.350665443091	0
0	999	100.100714629906	1
0	1000	100.100714629906	2
0	1001	100.350665443091	1
0	1012	101.350665443091	0
0	1018	101.446099634755	1
0	1019	101.446099634755	2
0	1028	102.350665443091	1
0	1042	103.350665443091	0
0	1048	103.439590275825	1
0	1049	103.439590275825	2
0	1056	104.350665443091	1
0	1067	105.350665443091	0
0	1076	106.275691811399	1
0	1077	106.275691811399	2
0	1078	106.350665443091	1
0	1089	107.350665443091	0
0	1095	107.377032122351	1
0	1096	107.377032122351	2
0	1100	108.350665443091	1
0	1111	109.350665443091	0
0	1117	109.695901074784	1
0	1118	109.695901074784	2
0	1122	110.350665443091	1
0	1128	111.350665443091	0
0	1134	111.852957691047	1
0	1135	111.852957691047	2
0	1136	112.350665443091	1
0	1144	113.350665443091	0
0	1157	114.36081559781	1
0	1161	115.36081559781	0
0	1167	116.026725347174	1
0	1168	116.026725347174	2
0	1169	116.36081559781	1
0	1177	117.36081559781	0
0	1186	117.9545518801	1
0	1187	117.9545518801	2
0	1188	118.36081559781	1
0	1199	119.36081559781	0
0	1205	119.654381688147	1
0	1206	119.654381688147	2
0	1215	120.36081559781	1
0	1226	121.36081559781	0
0	1242	122.451891810641	1
0	1249	123.451891810641	0
0	1259	124.474601450585	1
0	1265	125.474601450585	0
0	1271	125.494607020413	1
0	1272	125.494607020413	2
0	1276	126.474601450585	1
0	1287	127.474601450585	0
0	1293	128.109199471947	1
0	1294	128.109199471947	2
0	1298	128.474601450585	1
0	1314	129.474601450585	0
0	1320	129.963196454608	1
0	1321	129.963196454608	2
0	1328	130.474601450585	1
0	1337	131.474601450585	0
0	1343	131.56473364937	1
0	1344	131.56473364937	2
0	1350	132.474601450585	1
0	1361	133.474601450585	0
0	1374	134.953584585218	1
0	1378	135.953584585218	0
0	1387	136.1698892207	1
0	1388	136.1698892207	2
0	1394	136.953584585218	1
0	1405	137.953584585218	0
0	1414	138.259941577349	1
0	1415	138.259941577349	2
0	1419	138.953584585218	1
0	1430	139.953584585218	0
0	1446	141.522247603822	1
0	1452	142.522247603822	0
0	1461	143.194324297775	1
0	1462	143.194324297775	2
0	1463	143.522247603822	1
0	1474	144.522247603822	0
0	1480	144.59987450529	1
0	1481	144.59987450529	2
0	1490	145.522247603822	1
0	1496	146.522247603822	0
0	1502	146.823980011353	1
0	1503	146.823980011353	2
0	1507	147.522247603822	1
0	1513	148.522247603822	0
0	1523	149.734466120742	1
0	1529	150.734466120742	0
0	1535	151.193627020794	1
0	1536	151.193627020794	2
0	1540	151.734466120742	1
0	1551	152.734466120742	0
0	1557	153.650510525775	1
0	1558	153.650510525775	2
0	1562	153.734466120742	1
0	1573	154.734466120742	0
0	1586	155.902507480824	1
0	1595	156.902507480824	0
0	1601	157.433109217646	1
0	1602	157.433109217646	2
0	1606	157.902507480824	1
0	1612	158.902507480824	0
0	1618	159.235946700928	1
0	1619	159.235946700928	2
0	1625	159.902507480824	1
0	1641	160.902507480824	0
0	1650	161.454467338776	1
0	1651	161.454467338776	2
0	1658	161.902507480824	1
0	1672	162.902507480824	0
0	1678	163.040215813246	1
0	1679	163.040215813246	2
0	1683	163.902507480824	1
0	1689	164.902507480824	0
0	1695	164.932146854636	1
0	1696	164.932146854636	2
0	1697	165.902507480824	1
0	1705	166.902507480824	0
0	1714	167.293196677408	1
0	1715	167.293196677408	2
0	1721	167.902507480824	1
0	1732	168.902507480824	0
0	1751	170.305622745647	1
0	1760	171.305622745647	0
0	1776	173.225115156226	1
0	1777	174.225115156226	0
0	1783	174.667700602573	1
0	1784	174.667700602573	2
0	1785	175.225115156226	1
0	1793	176.225115156226	0
0	1799	176.312462242298	1
0	1800	176.312462242298	2
0	1814	177.225115156226	1
0	1826	178.225115156226	0
0	1832	178.353726487835	1
0	1833	178.353726487835	2
0	1840	179.225115156226	1
0	1853	180.225115156226	0
0	1862	181.088135973011	1
0	1863	181.088135973011	2
0	1867	181.225115156226	1
0	1876	182.225115156226	0
0	1882	182.521562893091	1
0	1883	182.521562893091	2
0	1884	183.225115156226	1
0	1892	184.225115156226	0
0	1901	185.010410282058	1
0	1902	185.010410282058	2
0	1903	185.225115156226	1
0	1909	186.225115156226	0
0	1915	186.391308415328	1
0	1916	186.391308415328	2
0	1922	187.225115156226	1
0	1933	188.225115156226	0
0	1942	189.104249014631	1
0	1943	189.104249014631	2
0	1947	189.225115156226	1
0	1953	190.225115156226	0
0	1959	190.31564869086	1
0	1960	190.31564869086	2
0	1966	191.225115156226	1
0	1977	192.225115156226	0
0	1983	192.688668393608	1
0	1984	192.688668393608	2
0	1988	193.225115156226	1
0	1994	194.225115156226	0
0	2003	194.803487847418	1
0	2004	194.803487847418	2
0	2005	195.225115156226	1
0	2013	196.225115156226	0
0	2019	196.400141226787	1
0	2020	196.400141226787	2
0	2024	197.225115156226	1
0	2040	198.225115156226	0
0	2049	198.954974159676	1
0	2050	198.954974159676	2
0	2054	199.225115156226	1
0	2073	200.225115156226	0
0	2089	201.368838957813	1
0	2096	202.368838957813	0
0	2102	202.416281559001	1
0	2103	202.416281559001	2
0	2104	203.368838957813	1
0	2112	204.368838957813	0
0	2125	205.377394332033	1
0	2129	206.377394332033	0
0	2135	206.385202379585	1
0	2136	206.385202379585	2
0	2137	207.377394332033	1
0	2150	208.377394332033	0
0	2159	208.924110182031	1
0	2160	208.924110182031	2
0	2164	209.377394332033	1
0	2178	210.377394332033	0
0	2184	210.847312854191	1
0	2185	210.847312854191	2
0	2189	211.377394332033	1
0	2200	212.377394332033	0
0	2209	213.003692793097	1
0	2210	213.003692793097	2
0	2211	213.377394332033	1
0	2222	214.377394332033	0
0	2238	216.018300409238	1
0	2239	217.018300409238	0
0	2249	218.299375783545	1
0	2250	219.299375783545	0
0	2256	219.971501871372	1
0	2257	219.971501871372	2
0	2258	220.299375783545	1
0	2266	221.299375783545	0
0	2272	221.865067292277	1
0	2273	221.865067292277	2
0	2277	222.299375783545	1
0	2288	223.299375783545	0
0	2294	223.63882431929	1
0	2295	223.63882431929	2
0	2299	224.299375783545	1
0	2310	225.299375783545	0
0	2316	225.460316418647	1
0	2317	225.460316418647	2
0	2321	226.299375783545	1
0	2332	227.299375783545	0
0	2345	228.715798772267	1
0	2354	229.715798772267	0
0	2360	229.862271367694	1
0	2361	229.862271367694	2
0	2370	230.715798772267	1
0	2384	231.715798772267	0
0	2403	233.68119033486	1
0	2414	234.68119033486	0
0	2433	236.213593393897	1
0	2442	237.213593393897	0
0	2448	237.476934827831	1
0	2449	237.476934827831	2
0	2453	238.213593393897	1
0	2464	239.213593393897	0
0	2473	239.563869294923	1
0	2474	239.563869294923	2
0	2475	240.213593393897	1
0	2486	241.213593393897	0
0	2502	243.102479075913	1
0	2503	244.102479075913	0
0	2509	244.228448571129	1
0	2510	244.228448571129	2
0	2516	245.102479075913	1
0	2522	246.102479075913	0
0	2531	246.927319643633	1
0	2532	246.927319643633	2
0	2533	247.102479075913	1
0	2541	248.102479075913	0
0	2547	248.470132159508	1
0	2548	248.470132159508	2
0	2557	249.102479075913	1
0	2566	250.102479075913	0
0	2572	250.194901783679	1
0	2573	250.194901783679	2
0	2577	251.102479075913	1
0	2580	252.102479075913	0
0	2586	252.236877787613	1
0	2587	252.236877787613	2
0	2588	253.102479075913	1
0	2596	254.102479075913	0
0	2602	254.127334590296	1
0	2603	254.127334590296	2
0	2607	255.102479075913	1
0	2618	256.102479075913	0
0	2627	257.07527345889	1
0	2628	257.07527345889	2
0	2629	257.102479075913	1
0	2635	258.102479075913	0
0	2641	258.971821475587	1
0	2642	258.971821475587	2
0	2643	259.102479075913	1
0	2656	260.102479075913	0
0	2672	261.20833631314	1
0	2679	262.20833631314	0
0	2685	262.530472214576	1
0	2686	262.530472214576	2
0	2687	263.20833631314	1
0	2695	264.20833631314	0
0	2704	264.679380618524	1
0	2705	264.679380618524	2
0	2706	265.20833631314	1
0	2712	266.20833631314	0
0	2718	266.85090531623	1
0	2719	266.85090531623	2
0	2725	267.20833631314	1
0	2731	268.20833631314	0
0	2737	268.832883294743	1
0	2738	268.832883294743	2
0	2742	269.20833631314	1
0	2750	270.20833631314	0
0	2759	270.81016616083	1
0	2760	270.81016616083	2
0	2761	271.20833631314	1
0	2772	272.20833631314	0
0	2778	272.743353245638	1
0	2779	272.743353245638	2
0	2783	273.20833631314	1
0	2794	274.20833631314	0
0	2807	275.338637883794	1
0	2816	276.338637883794	0
0	2822	276.669177039725	1
0	2823	276.669177039725	2
0	2827	277.338637883794	1
0	2838	278.338637883794	0
0	2851	279.562079520916	1
0	2860	280.562079520916	0
0	2866	281.289512541891	1
0	2867	281.289512541891	2
0	2871	281.562079520916	1
0	2882	282.562079520916	0
0	2895	283.788716169491	1
0	2899	284.788716169491	0
0	2905	285.552230721759	1
0	2906	285.552230721759	2
0	2907	285.788716169491	1
0	2915	286.788716169491	0
0	2931	289.267273491529	1
0	2932	290.267273491529	0
0	2938	290.541944376977	1
0	2939	290.541944376977	2
0	2940	291.267273491529	1
0	2948	292.267273491529	0
0	2954	292.526255669683	1
0	2955	292.526255669683	2
0	2964	293.267273491529	1
0	2970	294.267273491529	0
0	2976	294.872044144496	1
0	2977	294.872044144496	2
0	2981	295.267273491529	1
0	2997	296.267273491529	0
0	3003	296.554875381621	1
0	3004	296.554875381621	2
0	3016	297.267273491529	1
0	3030	298.267273491529	0
0	3046	299.550605931512	1
0	3058	300.550605931512	0
0	3071	301.848109273429	1
0	3075	302.848109273429	0
0	3081	303.226377699178	1
0	3082	303.226377699178	2
0	3083	303.848109273429	1
0	3091	304.848109273429	0
0	3100	305.804427215643	1
0	3101	305.804427215643	2
0	3102	305.848109273429	1
0	3108	306.848109273429	0
0	3114	307.029137850059	1
0	3115	307.029137850059	2
0	3116	307.848109273429	1
0	3119	308.848109273429	0
0	3125	309.297383109969	1
0	3126	309.297383109969	2
0	3127	309.848109273429	1
0	3130	310.848109273429	0
0	3136	310.855845373436	1
0	3137	310.855845373436	2
0	3143	311.848109273429	1
0	3159	312.848109273429	0
0	3175	313.928721907564	1
0	3182	314.928721907564	0
0	3195	316.171471763354	1
0	3196	317.171471763354	0
0	3202	317.919139344657	1
0	3203	317.919139344657	2
0	3204	318.171471763354	1
0	3212	319.171471763354	0
0	3218	319.4984970103	1
0	3219	319.4984970103	2
0	3223	320.171471763354	1
0	3234	321.171471763354	0
0	3240	321.570683777991	1
0	3241	321.570683777991	2
0	3245	322.171471763354	1
0	3261	323.171471763354	0
0	3267	323.691085715467	1
0	3268	323.691085715467	2
0	3275	324.171471763354	1
0	3289	325.171471763354	0
0	3295	325.744640001582	1
0	3296	325.744640001582	2
0	3305	326.171471763354	1
0	3316	327.171471763354	0
0	3325	327.587930178235	1
0	3326	327.587930178235	2
0	3330	328.171471763354	1
0	3344	329.171471763354	0
0	3350	329.672019248937	1
0	3351	329.672019248937	2
0	3355	330.171471763354	1
0	3376	331.171471763354	0
0	3398	332.524288389389	1
0	3405	333.524288389389	0
0	3415	334.578634174254	1
0	3421	335.578634174254	0
0	3427	336.163719578889	1
0	3428	336.163719578889	2
0	3432	336.578634174254	1
0	3448	337.578634174254	0
0	3464	339.347801618089	1
0	3476	340.347801618089	0
0	3482	341.140851021987	1
0	3483	341.140851021987	2
0	3487	341.347801618089	1
0	3498	342.347801618089	0
0	3504	343.039839846813	1
0	3505	343.039839846813	2
0	3509	343.347801618089	1
0	3520	344.347801618089	0
0	3526	345.265312967093	1
0	3527	345.265312967093	2
0	3531	345.347801618089	1
0	3537	346.347801618089	0
0	3543	346.801942328796	1
0	3544	346.801942328796	2
0	3550	347.347801618089	1
0	3561	348.347801618089	0
0	3567	348.4817498735	1
0	3568	348.4817498735	2
0	3572	349.347801618089	1
0	3583	350.347801618089	0
0	3595	351.000646987762	1
0	3596	351.000646987762	2
0	3597	351.347801618089	1
0	3603	352.347801618089	0
0	3609	352.664918091105	1
0	3610	352.664918091105	2
0	3611	353.347801618089	1
0	3614	354.347801618089	0
0	3620	354.466734457877	1
0	3621	354.466734457877	2
0	3622	355.347801618089	1
0	3630	356.347801618089	0
0	3639	357.316038458001	1
0	3640	357.316038458001	2
0	3641	357.347801618089	1
0	3652	358.347801618089	0
0	3658	358.593250614736	1
0	3659	358.593250614736	2
0	3668	359.347801618089	1
0	3679	360.347801618089	0
0	3698	361.93792428958	1
0	3702	362.93792428958	0
0	3708	363.371124462401	1
0	3709	363.371124462401	2
0	3710	363.93792428958	1
0	3718	364.93792428958	0
0	3731	366.002783578343	1
0	3745	367.002783578343	0
0	3761	368.009505269746	1
0	3773	369.009505269746	0
0	3786	370.090146583024	1
0	3795	371.090146583024	0
0	3801	371.227168190217	1
0	3802	371.227168190217	2
0	3811	372.090146583024	1
0	3822	373.090146583024	0
0	3828	373.607403741673	1
0	3829	373.607403741673	2
0	3836	374.090146583024	1
0	3855	375.090146583024	0
0	3861	375.452720807837	1
0	3862	375.452720807837	2
0	3869	376.090146583024	1
0	3878	377.090146583024	0
0	3884	377.268370169809	1
0	3885	377.268370169809	2
0	3891	378.090146583024	1
0	3902	379.090146583024	0
0	3908	379.384013554889	1
0	3909	379.384013554889	2
0	3916	380.090146583024	1
0	3927	381.090146583024	0
0	3940	382.611666072355	1
0	3949	383.611666072355	0
0	3962	384.750878729107	1
0	3966	385.750878729107	0
0	3972	386.488150677114	1
0	3973	386.488150677114	2
0	3974	386.750878729107	1
0	3987	387.750878729107	0
0	4006	389.494152119917	1
0	4010	390.494152119917	0
0	4016	390.840240118261	1
0	4017	390.840240118261	2
0	4018	391.494152119917	1
0	4021	392.494152119917	0
0	4027	392.912881612316	1
0	4028	392.912881612316	2
0	4029	393.494152119917	1
0	4037	394.494152119917	0
0	4046	394.969085381978	1
0	4047	394.969085381978	2
0	4048	395.494152119917	1
0	4059	396.494152119917	0
0	4065	396.954900665489	1
0	4066	396.954900665489	2
0	4070	397.494152119917	1
0	4081	398.494152119917	0
0	4087	398.498849586057	1
0	4088	398.498849586057	2
0	4097	399.494152119917	1
0	4116	400.494152119917	0
0	4122	400.965773024352	1
0	4123	400.965773024352	2
0	4130	401.494152119917	1
0	4139	402.494152119917	0
0	4145	402.534975265479	1
0	4146	402.534975265479	2
0	4150	403.494152119917	1
0	4158	404.494152119917	0
0	4164	405.308194929325	1
0	4165	405.308194929325	2
0	4169	405.494152119917	1
0	4175	406.494152119917	0
0	4181	406.830864192744	1
0	4182	406.830864192744	2
0	4183	407.494152119917	1
0	4191	408.494152119917	0
0	4200	409.340004379486	1
0	4201	409.340004379486	2
0	4202	409.494152119917	1
0	4213	410.494152119917	0
0	4222	411.413229833079	1
0	4223	411.413229833079	2
0	4224	411.494152119917	1
0	4235	412.494152119917	0
0	4241	412.851747510227	1
0	4242	412.851747510227	2
0	4246	413.494152119917	1
0	4257	414.494152119917	0
0	4270	415.694903561753	1
0	4274	416.694903561753	0
0	4280	416.790279462917	1
0	4281	416.790279462917	2
0	4287	417.694903561753	1
0	4293	418.694903561753	0
0	4299	419.029630519324	1
0	4300	419.029630519324	2
0	4304	419.694903561753	1
0	4312	420.694903561753	0
0	4325	421.764752417728	1
0	4329	422.764752417728	0
0	4335	422.953137806514	1
0	4336	422.953137806514	2
0	4342	423.764752417728	1
0	4348	424.764752417728	0
0	4354	425.217206683594	1
0	4355	425.217206683594	2
0	4359	425.764752417728	1
0	4367	426.764752417728	0
0	4373	427.442511638111	1
0	4374	427.442511638111	2
0	4378	427.764752417728	1
0	4389	428.764752417728	0
0	4395	428.854762281096	1
0	4396	428.854762281096	2
0	4405	429.764752417728	1
0	4419	430.764752417728	0
0	4428	431.578392975253	1
0	4429	431.578392975253	2
0	4433	431.764752417728	1
0	4439	432.764752417728	0
0	4445	433.076377509681	1
0	4446	433.076377509681	2
0	4447	433.764752417728	1
0	4455	434.764752417728	0
0	4461	435.265763112991	1
0	4462	435.265763112991	2
0	4466	435.764752417728	1
0	4477	436.764752417728	0
0	4483	436.789020319973	1
0	4484	436.789020319973	2
0	4488	437.764752417728	1
0	4499	438.764752417728	0
0	4505	439.249917408493	1
0	4506	439.249917408493	2
0	4515	439.764752417728	1
0	4534	440.764752417728	0
0	4543	441.284726806436	1
0	4544	441.284726806436	2
0	4548	441.764752417728	1
0	4562	442.764752417728	0
0	4571	443.544167491243	1
0	4572	443.544167491243	2
0	4576	443.764752417728	1
0	4582	444.764752417728	0
0	4588	444.849243214619	1
0	4589	444.849243214619	2
0	4595	445.764752417728	1
0	4601	446.764752417728	0
0	4610	447.594159428655	1
0	4611	447.594159428655	2
0	4612	447.764752417728	1
0	4625	448.764752417728	0
0	4644	450.102479378455	1
0	4648	451.102479378455	0
0	4654	451.547378166729	1
0	4655	451.547378166729	2
0	4656	452.102479378455	1
0	4664	453.102479378455	0
0	4670	453.381437054373	1
0	4671	453.381437054373	2
0	4675	454.102479378455	1
0	4686	455.102479378455	0
0	4695	455.758735361018	1
0	4696	455.758735361018	2
0	4697	456.102479378455	1
0	4708	457.102479378455	0
0	4714	457.560223448972	1
0	4715	457.560223448972	2
0	4719	458.102479378455	1
0	4730	459.102479378455	0
0	4743	460.219563096802	1
0	4747	461.219563096802	0
0	4753	461.235984593105	1
0	4754	461.235984593105	2
0	4760	462.219563096802	1
0	4771	463.219563096802	0
0	4784	464.588888524793	1
0	4788	465.588888524793	0
0	4794	465.997741529067	1
0	4795	465.997741529067	2
0	4799	466.588888524793	1
0	4807	467.588888524793	0
0	4813	467.707970738652	1
0	4814	467.707970738652	2
0	4818	468.588888524793	1
0	4829	469.588888524793	0
0	4835	469.629799802143	1
0	4836	469.629799802143	2
0	4840	470.588888524793	1
0	4851	471.588888524793	0
0	4857	471.75664869088	1
0	4858	471.75664869088	2
0	4867	472.588888524793	1
0	4878	473.588888524793	0
0	4887	474.101947973622	1
0	4888	474.101947973622	2
0	4892	474.588888524793	1
0	4901	475.588888524793	0
0	4907	475.773623046872	1
0	4908	475.773623046872	2
0	4909	476.588888524793	1
0	4917	477.588888524793	0
0	4926	478.042749026707	1
0	4927	478.042749026707	2
0	4933	478.588888524793	1
0	4939	479.588888524793	0
0	4945	479.68567163471	1
0	4946	479.68567163471	2
0	4955	480.588888524793	1
0	4961	481.588888524793	0
0	4970	481.992593084447	1
0	4971	481.992593084447	2
0	4972	482.588888524793	1
0	4978	483.588888524793	0
0	4988	485.311207093543	1
0	4989	486.311207093543	0
0	4995	487.092763715032	1
0	4996	487.092763715032	2
0	4997	487.311207093543	1
0	5000	488.311207093543	0
0	5006	488.587772903234	1
0	5007	488.587772903234	2
0	5013	489.311207093543	1
0	5019	490.311207093543	0
0	5025	490.422401424946	1
0	5026	490.422401424946	2
0	5040	491.311207093543	1
0	5054	492.311207093543	0
0	5060	492.454569364582	1
0	5061	492.454569364582	2
0	5071	493.311207093543	1
0	5082	494.311207093543	0
0	5088	494.495777066959	1
0	5089	494.495777066959	2
0	5093	495.311207093543	1
0	5104	496.311207093543	0
0	5110	496.746210962342	1
0	5111	496.746210962342	2
0	5115	497.311207093543	1
0	5126	498.311207093543	0
0	5132	498.475659405624	1
0	5133	498.475659405624	2
0	5137	499.311207093543	1
0	5148	500.311207093543	0
0	5154	500.560579766969	1
0	5155	500.560579766969	2
0	5159	501.311207093543	1
0	5170	502.311207093543	0
0	5183	503.931629102074	1
0	5187	504.931629102074	0
0	5193	505.38002484151	1
0	5194	505.38002484151	2
0	5195	505.931629102074	1
0	5208	506.931629102074	0
0	5217	507.87422181971	1
0	5218	507.87422181971	2
0	5222	507.931629102074	1
0	5231	508.931629102074	0
0	5237	509.789385459509	1
0	5238	509.789385459509	2
0	5239	509.931629102074	1
0	5247	510.931629102074	0
0	5256	511.845343805948	1
0	5257	511.845343805948	2
0	5258	511.931629102074	1
0	5274	512.931629102074	0
0	5280	513.094726402351	1
0	5281	513.094726402351	2
0	5288	513.931629102074	1
0	5297	514.931629102074	0
0	5303	514.983250104158	1
0	5304	514.983250104158	2
0	5315	515.931629102074	1
0	5324	516.931629102074	0
0	5330	517.048256070757	1
0	5331	517.048256070757	2
0	5338	517.931629102074	1
0	5346	518.931629102074	0
0	5359	520.335320077574	1
0	5363	521.335320077574	0
0	5369	522.199317113162	1
0	5370	522.199317113162	2
0	5371	522.335320077574	1
0	5374	523.335320077574	0
0	5380	523.479288482832	1
0	5381	523.479288482832	2
0	5387	524.335320077574	1
0	5398	525.335320077574	0
0	5404	525.632972614848	1
0	5405	525.632972614848	2
0	5412	526.335320077574	1
0	5423	527.335320077574	0
0	5436	528.463924166001	1
0	5440	529.463924166001	0
0	5446	529.636019961536	1
0	5447	529.636019961536	2
0	5448	530.463924166001	1
0	5461	531.463924166001	0
0	5477	532.570915201848	1
0	5489	533.570915201848	0
0	5495	533.862574841806	1
0	5496	533.862574841806	2
0	5500	534.570915201848	1
0	5511	535.570915201848	0
0	5524	536.784999007789	1
0	5528	537.784999007789	0
0	5534	538.186818843166	1
0	5535	538.186818843166	2
0	5541	538.784999007789	1
0	5552	539.784999007789	0
0	5561	540.406262363318	1
0	5562	540.406262363318	2
0	5566	540.784999007789	1
0	5577	541.784999007789	0
0	5586	542.132531640121	1
0	5587	542.132531640121	2
0	5588	542.784999007789	1
0	5599	543.784999007789	0
0	5608	544.388881813942	1
0	5609	544.388881813942	2
0	5610	544.784999007789	1
0	5621	545.784999007789	0
0	5637	547.950441540885	1
0	5643	548.950441540885	0
0	5649	549.761610052611	1
0	5650	549.761610052611	2
0	5654	549.950441540885	1
0	5665	550.950441540885	0
0	5674	551.900525043979	1
0	5675	551.900525043979	2
0	5676	551.950441540885	1
0	5687	552.950441540885	0
0	5693	553.01924263703	1
0	5694	553.01924263703	2
0	5703	553.950441540885	1
0	5717	554.950441540885	0
0	5723	555.436253829871	1
0	5724	555.436253829871	2
0	5736	555.950441540885	1
0	5745	556.950441540885	0
0	5751	557.717487387505	1
0	5752	557.717487387505	2
0	5761	557.950441540885	1
0	5772	558.950441540885	0
0	5781	559.213741762101	1
0	5782	559.213741762101	2
0	5786	559.950441540885	1
0	5797	560.950441540885	0
0	5803	561.551534977141	1
0	5804	561.551534977141	2
0	5808	561.950441540885	1
0	5819	562.950441540885	0
0	5825	563.201669486331	1
0	5826	563.201669486331	2
0	5835	563.950441540885	1
0	5846	564.950441540885	0
0	5852	564.958424780445	1
0	5853	564.958424780445	2
0	5860	565.950441540885	1
0	5874	566.950441540885	0
0	5880	567.337837752732	1
0	5881	567.337837752732	2
0	5885	567.950441540885	1
0	5901	568.950441540885	0
0	5907	569.16468903859	1
0	5908	569.16468903859	2
0	5915	569.950441540885	1
0	5924	570.950441540885	0
0	5930	571.159880156213	1
0	5931	571.159880156213	2
0	5937	571.950441540885	1
0	5948	572.950441540885	0
0	5954	573.457522564116	1
0	5955	573.457522564116	2
0	5962	573.950441540885	1
0	5973	574.950441540885	0
0	5982	575.292592497257	1
0	5983	575.292592497257	2
0	5984	575.950441540885	1
0	5990	576.950441540885	0
0	5996	577.152002490398	1
0	5997	577.152002490398	2
0	5998	577.950441540885	1
0	6001	578.950441540885	0
0	6007	579.31155026713	1
0	6008	579.31155026713	2
0	6009	579.950441540885	1
0	6017	580.950441540885	0
0	6026	581.580592240304	1
0	6027	581.580592240304	2
0	6028	581.950441540885	1
0	6034	582.950441540885	0
0	6040	583.873245398125	1
0	6041	583.873245398125	2
0	6042	583.950441540885	1
0	6050	584.950441540885	0
0	6059	585.891025787357	1
0	6060	585.891025787357	2
0	6061	585.950441540885	1
0	6072	586.950441540885	0
0	6078	587.066716187194	1
0	6079	587.066716187194	2
0	6083	587.950441540885	1
0	6094	588.950441540885	0
0	6100	589.333477120551	1
0	6101	589.333477120551	2
0	6110	589.950441540885	1
0	6124	590.950441540885	0
0	6140	592.077041547724	1
0	6149	593.077041547724	0
0	6155	593.702729896123	1
0	6156	593.702729896123	2
0	6160	594.077041547724	1
0	6166	595.077041547724	0
0	6172	595.337575668825	1
0	6173	595.337575668825	2
0	6179	596.077041547724	1
0	6185	597.077041547724	0
0	6191	597.269727014161	1
0	6192	597.269727014161	2
0	6201	598.077041547724	1
0	6212	599.077041547724	0
0	6218	599.692882157387	1
0	6219	599.692882157387	2
0	6226	600.077041547724	1
0	6232	601.077041547724	0
0	6238	601.077194975016	1
0	6239	601.077194975016	2
0	6240	602.077041547724	1
0	6248	603.077041547724	0
0	6257	603.908618116733	1
0	6258	603.908618116733	2
0	6259	604.077041547724	1
0	6265	605.077041547724	0
0	6271	605.768869925034	1
0	6272	605.768869925034	2
0	6273	606.077041547724	1
0	6281	607.077041547724	0
0	6290	607.887237780503	1
0	6291	607.887237780503	2
0	6292	608.077041547724	1
0	6303	609.077041547724	0
0	6312	609.937412405516	1
0	6313	609.937412405516	2
0	6314	610.077041547724	1
0	6325	611.077041547724	0
0	6331	611.774049171469	1
0	6332	611.774049171469	2
0	6336	612.077041547724	1
0	6347	613.077041547724	0
0	6353	613.483956441252	1
0	6354	613.483956441252	2
0	6363	614.077041547724	1
0	6374	615.077041547724	0
0	6386	615.89441509256	1
0	6387	615.89441509256	2
0	6388	616.077041547724	1
0	6402	617.077041547724	0
0	6415	618.869206262989	1
0	6419	619.869206262989	0
0	6429	621.169166298467	1
0	6435	622.169166298467	0
0	6441	622.824530179557	1
0	6442	622.824530179557	2
0	6446	623.169166298467	1
0	6462	624.169166298467	0
0	6468	624.202073426973	1
0	6469	624.202073426973	2
0	6481	625.169166298467	1
0	6495	626.169166298467	0
0	6501	626.727075483638	1
0	6502	626.727075483638	2
0	6514	627.169166298467	1
0	6528	628.169166298467	0
0	6534	628.422355511609	1
0	6535	628.422355511609	2
0	6542	629.169166298467	1
0	6561	630.169166298467	0
0	6567	630.786688199171	1