version 3
run k_MM1_lbqf-7-20221127-16:03:34-25264
attr configname k_MM1_lbqf
attr datetime 20221127-16:03:34
attr datetimef 20221127-160334
attr experiment k_MM1_lbqf
attr inifile omnetpp.ini
attr iterationvars "$time=1.0, $num=5, $0=33434, $1=56673, $2=23567"
attr iterationvarsd time=1.0/num=5/33434/56673/23567
attr iterationvarsf time=1.0,num=5,33434,56673,23567-
attr measurement "$time=1.0, $num=5, $0=33434, $1=56673, $2=23567"
attr network lbqfkMM1
attr processid 25264
attr repetition 3
attr replication #3
attr resultdir results
attr runnumber 7
attr seedset 7
itervar num 5
itervar time 1.0
config description "MM1 module k-times lbqf"
config network lbqfkMM1
config **.interArrivalTime "truncnormal(uniform(0.5s, 1.5s), uniform(0.25s, 0.75s))"
config **.serviceTime 1.0s
config **.c 5
config **.capacity 10000
config record-eventlog false
config **.scalar-recording true
config **.vector-recording true
config repeat 4
config seed-1-mt 33434
config seed-2-mt 56673
config seed-3-mt 23567
config output-vector-file k_MM1_lbqf-5-1.0-results/3.vec
config output-scalar-file k_MM1_lbqf-5-1.0-results/3.sca

vector 0 lbqfkMM1.mm1[0] queueLength:vector ETV
attr interpolationmode none
attr recordingmode vector
attr title "queue length"
vector 1 lbqfkMM1.mm1[1] queueLength:vector ETV
attr interpolationmode none
attr recordingmode vector
attr title "queue length"
vector 2 lbqfkMM1.mm1[2] queueLength:vector ETV
attr interpolationmode none
attr recordingmode vector
attr title "queue length"
vector 3 lbqfkMM1.mm1[0] util:vector ETV
attr interpolationmode none
attr recordingmode vector
attr title resources
vector 4 lbqfkMM1.mm1[1] util:vector ETV
attr interpolationmode none
attr recordingmode vector
attr title resources
vector 5 lbqfkMM1.mm1[2] util:vector ETV
attr interpolationmode none
attr recordingmode vector
attr title resources
vector 6 lbqfkMM1.mm1[3] queueLength:vector ETV
attr interpolationmode none
attr recordingmode vector
attr title "queue length"
vector 7 lbqfkMM1.mm1[3] util:vector ETV
attr interpolationmode none
attr recordingmode vector
attr title resources
vector 8 lbqfkMM1.mm1[4] queueLength:vector ETV
attr interpolationmode none
attr recordingmode vector
attr title "queue length"
vector 9 lbqfkMM1.mm1[4] util:vector ETV
attr interpolationmode none
attr recordingmode vector
attr title resources
0	5	10	1
0	16	11	0
0	28	11.944731331819	1
0	29	11.944731331819	2
0	30	12	1
0	44	13	0
0	57	14.404517458025	1
0	66	15.404517458025	0
0	72	15.728960538622	1
0	73	15.728960538622	2
0	77	16.404517458025	1
0	88	17.404517458025	0
0	94	17.725470940931	1
0	95	17.725470940931	2
0	104	18.404517458025	1
0	113	19.404517458025	0
0	119	19.898977779154	1
0	120	19.898977779154	2
0	124	20.404517458025	1
0	127	21.404517458025	0
0	133	22.253775351665	1
0	134	22.253775351665	2
0	135	22.404517458025	1
0	143	23.404517458025	0
0	152	23.927100361659	1
0	153	23.927100361659	2
0	154	24.404517458025	1
0	165	25.404517458025	0
0	174	26.196007873275	1
0	175	26.196007873275	2
0	176	26.404517458025	1
0	187	27.404517458025	0
0	203	29.225759091184	1
0	204	30.225759091184	0
0	210	30.316301364418	1
0	211	30.316301364418	2
0	217	31.225759091184	1
0	233	32.225759091184	0
0	252	33.360374521103	1
0	259	34.360374521103	0
0	265	34.541051799045	1
0	266	34.541051799045	2
0	267	35.360374521103	1
0	280	36.360374521103	0
0	289	36.547492513768	1
0	290	36.547492513768	2
0	299	37.360374521103	1
0	313	38.360374521103	0
0	332	39.802349954699	1
0	341	40.802349954699	0
0	350	41.544051072135	1
0	351	41.544051072135	2
0	352	41.802349954699	1
0	363	42.802349954699	0
0	372	43.278167948922	1
0	373	43.278167948922	2
0	374	43.802349954699	1
0	385	44.802349954699	0
0	394	45.329163127576	1
0	395	45.329163127576	2
0	396	45.802349954699	1
0	412	46.802349954699	0
0	418	46.961965134649	1
0	419	46.961965134649	2
0	431	47.802349954699	1
0	440	48.802349954699	0
0	446	49.133207507482	1
0	447	49.133207507482	2
0	451	49.802349954699	1
0	457	50.802349954699	0
0	463	50.878907793013	1
0	464	50.878907793013	2
0	465	51.802349954699	1
0	473	52.802349954699	0
0	482	53.315903281588	1
0	483	53.315903281588	2
0	484	53.802349954699	1
0	495	54.802349954699	0
0	508	56.094559818885	1
0	517	57.094559818885	0
0	526	57.889506805515	1
0	527	57.889506805515	2
0	528	58.094559818885	1
0	539	59.094559818885	0
0	552	60.171350642345	1
0	556	61.171350642345	0
0	566	62.236242168269	1
0	577	63.236242168269	0
0	589	63.748664815273	1
0	590	63.748664815273	2
0	596	64.236242168269	1
0	605	65.236242168269	0
0	614	65.887022319277	1
0	615	65.887022319277	2
0	621	66.236242168269	1
0	627	67.236242168269	0
0	633	67.33448499074	1
0	634	67.33448499074	2
0	648	68.236242168269	1
0	657	69.236242168269	0
0	663	69.330488087082	1
0	664	69.330488087082	2
0	676	70.236242168269	1
0	690	71.236242168269	0
0	706	72.592441309236	1
0	710	73.592441309236	0
0	716	73.745770708483	1
0	717	73.745770708483	2
0	718	74.592441309236	1
0	721	75.592441309236	0
0	727	75.779949587474	1
0	728	75.779949587474	2
0	729	76.592441309236	1
0	737	77.592441309236	0
0	750	79.219146209021	1
0	759	80.219146209021	0
0	765	80.437344528444	1
0	766	80.437344528444	2
0	770	81.219146209021	1
0	781	82.219146209021	0
0	787	82.672445363858	1
0	788	82.672445363858	2
0	792	83.219146209021	1
0	808	84.219146209021	0
0	814	84.699927050143	1
0	815	84.699927050143	2
0	822	85.219146209021	1
0	836	86.219146209021	0
0	849	87.666245552995	1
0	858	88.666245552995	0
0	864	88.860038558492	1
0	865	88.860038558492	2
0	869	89.666245552995	1
0	880	90.666245552995	0
0	886	91.126778070066	1
0	887	91.126778070066	2
0	891	91.666245552995	1
0	897	92.666245552995	0
0	903	92.831875964185	1
0	904	92.831875964185	2
0	915	93.666245552995	1
0	924	94.666245552995	0
0	930	94.888525685216	1
0	931	94.888525685216	2
0	938	95.666245552995	1
0	946	96.666245552995	0
0	952	96.793654837209	1
0	953	96.793654837209	2
0	957	97.666245552995	1
0	973	98.666245552995	0
0	982	99.129243769205	1
0	983	99.129243769205	2
0	992	99.666245552995	1
0	1001	100.666245552995	0
0	1007	100.72614439784	1
0	1008	100.72614439784	2
0	1017	101.666245552995	1
0	1028	102.666245552995	0
0	1037	103.315909347867	1
0	1038	103.315909347867	2
0	1042	103.666245552995	1
0	1056	104.666245552995	0
0	1069	106.150916444005	1
0	1078	107.150916444005	0
0	1087	107.926052106103	1
0	1088	107.926052106103	2
0	1089	108.150916444005	1
0	1095	109.150916444005	0
0	1101	110.067584460183	1
0	1102	110.067584460183	2
0	1103	110.150916444005	1
0	1116	111.150916444005	0
0	1132	112.277730394081	1
0	1139	113.277730394081	0
0	1145	113.658183173142	1
0	1146	113.658183173142	2
0	1152	114.277730394081	1
0	1163	115.277730394081	0
0	1175	116.204344726371	1
0	1176	116.204344726371	2
0	1177	116.277730394081	1
0	1183	117.277730394081	0
0	1189	117.547255723439	1
0	1190	117.547255723439	2
0	1191	118.277730394081	1
0	1199	119.277730394081	0
0	1205	119.35735326563	1
0	1206	119.35735326563	2
0	1210	120.277730394081	1
0	1221	121.277730394081	0
0	1227	121.428458087931	1
0	1228	121.428458087931	2
0	1232	122.277730394081	1
0	1238	123.277730394081	0
0	1244	123.679227960416	1
0	1245	123.679227960416	2
0	1246	124.277730394081	1
0	1254	125.277730394081	0
0	1260	125.328247165742	1
0	1261	125.328247165742	2
0	1270	126.277730394081	1
0	1276	127.277730394081	0
0	1285	127.393916142974	1
0	1286	127.393916142974	2
0	1287	128.277730394081	1
0	1298	129.277730394081	0
0	1307	130.086447044091	1
0	1308	130.086447044091	2
0	1309	130.277730394081	1
0	1315	131.277730394081	0
0	1321	131.972382181373	1
0	1322	131.972382181373	2
0	1323	132.277730394081	1
0	1331	133.277730394081	0
0	1340	133.723086766716	1
0	1341	133.723086766716	2
0	1342	134.277730394081	1
0	1353	135.277730394081	0
0	1362	136.0238991552	1
0	1363	136.0238991552	2
0	1364	136.277730394081	1
0	1380	137.277730394081	0
0	1386	137.43515146607	1
0	1387	137.43515146607	2
0	1394	138.277730394081	1
0	1408	139.277730394081	0
0	1421	140.340778643285	1
0	1430	141.340778643285	0
0	1436	141.788818863406	1
0	1437	141.788818863406	2
0	1441	142.340778643285	1
0	1452	143.340778643285	0
0	1458	143.438986959188	1
0	1459	143.438986959188	2
0	1468	144.340778643285	1
0	1482	145.340778643285	0
0	1488	146.054459982252	1
0	1489	146.054459982252	2
0	1496	146.340778643285	1
0	1502	147.340778643285	0
0	1508	147.644029336379	1
0	1509	147.644029336379	2
0	1510	148.340778643285	1
0	1518	149.340778643285	0
0	1527	149.832098245871	1
0	1528	149.832098245871	2
0	1534	150.340778643285	1
0	1545	151.340778643285	0
0	1554	151.847912294596	1
0	1555	151.847912294596	2
0	1559	152.340778643285	1
0	1578	153.340778643285	0
0	1594	154.468380588545	1
0	1601	155.468380588545	0
0	1607	155.718892532404	1
0	1608	155.718892532404	2
0	1614	156.468380588545	1
0	1625	157.468380588545	0
0	1634	158.325932900788	1
0	1635	158.325932900788	2
0	1636	158.468380588545	1
0	1642	159.468380588545	0
0	1648	159.898501300211	1
0	1649	159.898501300211	2
0	1663	160.468380588545	1
0	1672	161.468380588545	0
0	1678	161.669844182808	1
0	1679	161.669844182808	2
0	1686	162.468380588545	1
0	1689	163.468380588545	0
0	1695	163.979177381155	1
0	1696	163.979177381155	2
0	1697	164.468380588545	1
0	1700	165.468380588545	0
0	1706	166.088410800918	1
0	1707	166.088410800918	2
0	1713	166.468380588545	1
0	1724	167.468380588545	0
0	1733	168.055149715272	1
0	1734	168.055149715272	2
0	1738	168.468380588545	1
0	1744	169.468380588545	0
0	1750	169.565616701218	1
0	1751	169.565616701218	2
0	1752	170.468380588545	1
0	1760	171.468380588545	0
0	1766	171.546780389327	1
0	1767	171.546780389327	2
0	1781	172.468380588545	1
0	1795	173.468380588545	0
0	1807	174.414568119851	1
0	1808	174.414568119851	2
0	1809	174.468380588545	1
0	1818	175.468380588545	0
0	1824	175.698836723802	1
0	1825	175.698836723802	2
0	1829	176.468380588545	1
0	1837	177.468380588545	0
0	1846	177.865039771899	1
0	1847	177.865039771899	2
0	1848	178.468380588545	1
0	1859	179.468380588545	0
0	1868	179.748374047242	1
0	1869	179.748374047242	2
0	1870	180.468380588545	1
0	1881	181.468380588545	0
0	1887	181.848925019779	1
0	1888	181.848925019779	2
0	1892	182.468380588545	1
0	1903	183.468380588545	0
0	1909	183.653559693048	1
0	1910	183.653559693048	2
0	1914	184.468380588545	1
0	1925	185.468380588545	0
0	1931	185.956880300445	1
0	1932	185.956880300445	2
0	1936	186.468380588545	1
0	1947	187.468380588545	0
0	1960	188.66191501162	1
0	1969	189.66191501162	0
0	1978	190.365827241886	1
0	1979	190.365827241886	2
0	1980	190.66191501162	1
0	1996	191.66191501162	0
0	2002	191.965188303727	1
0	2003	191.965188303727	2
0	2010	192.66191501162	1
0	2024	193.66191501162	0
0	2030	194.175845903628	1
0	2031	194.175845903628	2
0	2040	194.66191501162	1
0	2051	195.66191501162	0
0	2063	196.366627658637	1
0	2064	196.366627658637	2
0	2065	196.66191501162	1
0	2079	197.66191501162	0
0	2088	198.60634347722	1
0	2089	198.60634347722	2
0	2090	198.66191501162	1
0	2096	199.66191501162	0
0	2102	200.228349089302	1
0	2103	200.228349089302	2
0	2104	200.66191501162	1
0	2117	201.66191501162	0
0	2126	201.970112397141	1
0	2127	201.970112397141	2
0	2136	202.66191501162	1
0	2150	203.66191501162	0
0	2172	205.673040623195	1
0	2173	206.673040623195	0
0	2179	207.430673080451	1
0	2180	207.430673080451	2
0	2181	207.673040623195	1
0	2184	208.673040623195	0
0	2190	208.89976695005	1
0	2191	208.89976695005	2
0	2192	209.673040623195	1
0	2200	210.673040623195	0
0	2206	211.12595572406	1
0	2207	211.12595572406	2
0	2216	211.673040623195	1
0	2230	212.673040623195	0
0	2246	214.172407861592	1
0	2250	215.172407861592	0
0	2256	215.278292735223	1
0	2257	215.278292735223	2
0	2258	216.172407861592	1
0	2266	217.172407861592	0
0	2279	218.224679648874	1
0	2283	219.224679648874	0
0	2289	219.887960367416	1
0	2290	219.887960367416	2
0	2291	220.224679648874	1
0	2294	221.224679648874	0
0	2304	222.924783158655	1
0	2305	223.924783158655	0
0	2315	225.029647747384	1
0	2321	226.029647747384	0
0	2327	226.24210422057	1
0	2328	226.24210422057	2
0	2332	227.029647747384	1
0	2343	228.029647747384	0
0	2349	228.321719537094	1
0	2350	228.321719537094	2
0	2354	229.029647747384	1
0	2365	230.029647747384	0
0	2371	230.757484547825	1
0	2372	230.757484547825	2
0	2376	231.029647747384	1
0	2387	232.029647747384	0
0	2393	232.222068220197	1
0	2394	232.222068220197	2
0	2398	233.029647747384	1
0	2404	234.029647747384	0
0	2410	234.648176617692	1
0	2411	234.648176617692	2
0	2412	235.029647747384	1
0	2425	236.029647747384	0
0	2431	236.402883129943	1
0	2432	236.402883129943	2
0	2439	237.029647747384	1
0	2453	238.029647747384	0
0	2459	238.538664184882	1
0	2460	238.538664184882	2
0	2464	239.029647747384	1
0	2475	240.029647747384	0
0	2481	240.820725076632	1
0	2482	240.820725076632	2
0	2486	241.029647747384	1
0	2497	242.029647747384	0
0	2510	243.865141347853	1
0	2514	244.865141347853	0
0	2520	245.046676842229	1
0	2521	245.046676842229	2
0	2527	245.865141347853	1
0	2543	246.865141347853	0
0	2552	247.074534297956	1
0	2553	247.074534297956	2
0	2560	247.865141347853	1
0	2574	248.865141347853	0
0	2580	249.18690847704	1
0	2581	249.18690847704	2
0	2590	249.865141347853	1
0	2601	250.865141347853	0
0	2613	251.707674015275	1
0	2614	251.707674015275	2
0	2615	251.865141347853	1
0	2624	252.865141347853	0
0	2630	253.608463593716	1
0	2631	253.608463593716	2
0	2632	253.865141347853	1
0	2645	254.865141347853	0
0	2661	256.088751620257	1
0	2668	257.088751620257	0
0	2674	257.516116629477	1
0	2675	257.516116629477	2
0	2676	258.088751620257	1
0	2679	259.088751620257	0
0	2689	260.324672699886	1
0	2690	261.324672699886	0
0	2696	261.364204819732	1
0	2697	261.364204819732	2
0	2698	262.324672699886	1
0	2706	263.324672699886	0
0	2722	265.080452038379	1
0	2728	266.080452038379	0
0	2737	266.677995734149	1
0	2738	266.677995734149	2
0	2744	267.080452038379	1
0	2755	268.080452038379	0
0	2761	268.095321149379	1
0	2762	268.095321149379	2
0	2769	269.080452038379	1
0	2783	270.080452038379	0
0	2799	271.671569402342	1
0	2805	272.671569402342	0
0	2814	273.082737094735	1
0	2815	273.082737094735	2
0	2816	273.671569402342	1
0	2827	274.671569402342	0
0	2833	275.358901574084	1
0	2834	275.358901574084	2
0	2843	275.671569402342	1
0	2854	276.671569402342	0
0	2860	276.836459247719	1
0	2861	276.836459247719	2
0	2868	277.671569402342	1
0	2887	278.671569402342	0
0	2893	279.115444621473	1
0	2894	279.115444621473	2
0	2901	279.671569402342	1
0	2910	280.671569402342	0
0	2916	281.403083150485	1
0	2917	281.403083150485	2
0	2918	281.671569402342	1
0	2926	282.671569402342	0
0	2932	283.025768195007	1
0	2933	283.025768195007	2
0	2947	283.671569402342	1
0	2964	284.671569402342	0
0	2970	284.935791857982	1
0	2971	284.935791857982	2
0	2986	285.671569402342	1
0	3000	286.671569402342	0
0	3006	287.344926110581	1
0	3007	287.344926110581	2
0	3014	287.671569402342	1
0	3025	288.671569402342	0
0	3034	289.655384158347	1
0	3035	289.655384158347	2
0	3036	289.671569402342	1
0	3042	290.671569402342	0
0	3048	290.798625346679	1
0	3049	290.798625346679	2
0	3055	291.671569402342	1
0	3071	292.671569402342	0
0	3080	293.318439024477	1
0	3081	293.318439024477	2
0	3085	293.671569402342	1
0	3099	294.671569402342	0
0	3108	295.607877718277	1
0	3109	295.607877718277	2
0	3110	295.671569402342	1
0	3116	296.671569402342	0
0	3125	297.362795874196	1
0	3126	297.362795874196	2
0	3127	297.671569402342	1
0	3135	298.671569402342	0
0	3148	300.40863299488	1
0	3152	301.40863299488	0
0	3158	301.965766173009	1
0	3159	301.965766173009	2
0	3160	302.40863299488	1
0	3168	303.40863299488	0
0	3184	305.226866261148	1
0	3195	306.226866261148	0
0	3207	307.169202011133	1
0	3208	307.169202011133	2
0	3209	307.226866261148	1
0	3218	308.226866261148	0
0	3224	308.677317054067	1
0	3225	308.677317054067	2
0	3226	309.226866261148	1
0	3239	310.226866261148	0
0	3255	311.36140166853	1
0	3267	312.36140166853	0
0	3273	312.763164459567	1
0	3274	312.763164459567	2
0	3278	313.36140166853	1
0	3284	314.36140166853	0
0	3290	314.681466755711	1
0	3291	314.681466755711	2
0	3297	315.36140166853	1
0	3303	316.36140166853	0
0	3309	316.378814582102	1
0	3310	316.378814582102	2
0	3314	317.36140166853	1
0	3317	318.36140166853	0
0	3323	318.437343643096	1
0	3324	318.437343643096	2
0	3330	319.36140166853	1
0	3341	320.36140166853	0
0	3347	320.377821525508	1
0	3348	320.377821525508	2
0	3355	321.36140166853	1
0	3366	322.36140166853	0
0	3375	322.52420298297	1
0	3376	322.52420298297	2
0	3377	323.36140166853	1
0	3388	324.36140166853	0
0	3397	324.840384323547	1
0	3398	324.840384323547	2
0	3399	325.36140166853	1
0	3410	326.36140166853	0
0	3419	326.873156732088	1
0	3420	326.873156732088	2
0	3421	327.36140166853	1
0	3432	328.36140166853	0
0	3445	329.495935711609	1
0	3454	330.495935711609	0
0	3467	331.876166669878	1
0	3476	332.876166669878	0
0	3485	333.798333199264	1
0	3486	333.798333199264	2
0	3487	333.876166669878	1
0	3493	334.876166669878	0
0	3499	335.527173408649	1
0	3500	335.527173408649	2
0	3506	335.876166669878	1
0	3517	336.876166669878	0
0	3526	337.773546951682	1
0	3527	337.773546951682	2
0	3531	337.876166669878	1
0	3542	338.876166669878	0
0	3548	338.889095419487	1
0	3549	338.889095419487	2
0	3558	339.876166669878	1
0	3564	340.876166669878	0
0	3570	340.891044379737	1
0	3571	340.891044379737	2
0	3575	341.876166669878	1
0	3581	342.876166669878	0
0	3587	342.89564110437	1
0	3588	342.89564110437	2
0	3599	343.876166669878	1
0	3613	344.876166669878	0
0	3625	345.826776426491	1
0	3626	345.826776426491	2
0	3627	345.876166669878	1
0	3638	346.876166669878	0
0	3654	348.175002593691	1
0	3658	349.175002593691	0
0	3664	349.420404381888	1
0	3665	349.420404381888	2
0	3666	350.175002593691	1
0	3674	351.175002593691	0
0	3683	352.16224197213	1
0	3684	352.16224197213	2
0	3685	352.175002593691	1
0	3696	353.175002593691	0
0	3709	354.417933598221	1
0	3713	355.417933598221	0
0	3719	355.622009856554	1
0	3720	355.622009856554	2
0	3721	356.417933598221	1
0	3724	357.417933598221	0
0	3730	357.495315859584	1
0	3731	357.495315859584	2
0	3732	358.417933598221	1
0	3740	359.417933598221	0
0	3749	359.803146059761	1
0	3750	359.803146059761	2
0	3751	360.417933598221	1
0	3762	361.417933598221	0
0	3771	362.344585055382	1
0	3772	362.344585055382	2
0	3773	362.417933598221	1
0	3789	363.417933598221	0
0	3805	364.450869512881	1
0	3812	365.450869512881	0
0	3818	365.694028706699	1
0	3819	365.694028706699	2
0	3825	366.450869512881	1
0	3836	367.450869512881	0
0	3848	368.119098701874	1
0	3849	368.119098701874	2
0	3850	368.450869512881	1
0	3856	369.450869512881	0
0	3862	369.50931063906	1
0	3863	369.50931063906	2
0	3874	370.450869512881	1
0	3893	371.450869512881	0
0	3908	371.964529238021	1
0	3909	371.964529238021	2
0	3910	372.450869512881	1
0	3924	373.450869512881	0
0	3933	374.077746973512	1
0	3934	374.077746973512	2
0	3935	374.450869512881	1
0	3946	375.450869512881	0
0	3955	375.844150707125	1
0	3956	375.844150707125	2
0	3962	376.450869512881	1
0	3976	377.450869512881	0
0	3985	377.88693801273	1
0	3986	377.88693801273	2
0	3990	378.450869512881	1
0	4001	379.450869512881	0
0	4010	379.910561715388	1
0	4011	379.910561715388	2
0	4012	380.450869512881	1
0	4023	381.450869512881	0
0	4032	381.813174966622	1
0	4033	381.813174966622	2
0	4034	382.450869512881	1
0	4045	383.450869512881	0
0	4054	384.267846026124	1
0	4055	384.267846026124	2
0	4056	384.450869512881	1
0	4062	385.450869512881	0
0	4071	385.789170293135	1
0	4072	385.789170293135	2
0	4073	386.450869512881	1
0	4081	387.450869512881	0
0	4097	389.284996163497	1
0	4103	390.284996163497	0
0	4109	391.024131966296	1
0	4110	391.024131966296	2
0	4114	391.284996163497	1
0	4125	392.284996163497	0
0	4138	393.907643263534	1
0	4147	394.907643263534	0
0	4156	395.827260233748	1
0	4157	395.827260233748	2
0	4158	395.907643263534	1
0	4169	396.907643263534	0
0	4178	397.803695892587	1
0	4179	397.803695892587	2
0	4180	397.907643263534	1
0	4186	398.907643263534	0
0	4192	399.53729401039	1
0	4193	399.53729401039	2
0	4194	399.907643263534	1
0	4202	400.907643263534	0
0	4215	402.148559846485	1
0	4219	403.148559846485	0
0	4225	403.707975733996	1
0	4226	403.707975733996	2
0	4237	404.148559846485	1
0	4251	405.148559846485	0
0	4257	405.516508625725	1
0	4258	405.516508625725	2
0	4265	406.148559846485	1
0	4276	407.148559846485	0
0	4282	407.206998415243	1
0	4283	407.206998415243	2
0	4290	408.148559846485	1
0	4301	409.148559846485	0
0	4307	409.371728933696	1
0	4308	409.371728933696	2
0	4312	410.148559846485	1
0	4328	411.148559846485	0
0	4347	412.71326056283	1
0	4356	413.71326056283	0
0	4362	414.295494022358	1
0	4363	414.295494022358	2
0	4367	414.71326056283	1
0	4373	415.71326056283	0
0	4379	415.9963757097	1
0	4380	415.9963757097	2
0	4381	416.71326056283	1
0	4389	417.71326056283	0
0	4395	417.79338809719	1
0	4396	417.79338809719	2
0	4400	418.71326056283	1
0	4411	419.71326056283	0
0	4417	419.717444579448	1
0	4418	419.717444579448	2
0	4427	420.71326056283	1
0	4443	421.71326056283	0
0	4462	422.740421746615	1
0	4482	423.740421746615	0
0	4501	425.351900566712	1
0	4510	426.351900566712	0
0	4516	426.93812788974	1
0	4517	426.93812788974	2
0	4521	427.351900566712	1
0	4542	428.351900566712	0
0	4548	428.916468317033	1
0	4549	428.916468317033	2
0	4559	429.351900566712	1
0	4576	430.351900566712	0
0	4582	431.342973613156	1
0	4583	431.342973613156	2
0	4587	431.351900566712	1
0	4598	432.351900566712	0
0	4604	432.381707426315	1
0	4605	432.381707426315	2
0	4614	433.351900566712	1
0	4628	434.351900566712	0
0	4634	434.536239511743	1
0	4635	434.536239511743	2
0	4642	435.351900566712	1
0	4653	436.351900566712	0
0	4659	437.227084574674	1
0	4660	437.227084574674	2
0	4664	437.351900566712	1
0	4670	438.351900566712	0
0	4676	438.468240169058	1
0	4677	438.468240169058	2
0	4683	439.351900566712	1
0	4694	440.351900566712	0
0	4703	440.965018816988	1
0	4704	440.965018816988	2
0	4708	441.351900566712	1
0	4719	442.351900566712	0
0	4728	443.141382559219	1
0	4729	443.141382559219	2
0	4730	443.351900566712	1
0	4736	444.351900566712	0
0	4742	444.702634988447	1
0	4743	444.702634988447	2
0	4754	445.351900566712	1
0	4773	446.351900566712	0
0	4785	447.052390971256	1
0	4786	447.052390971256	2
0	4793	447.351900566712	1
0	4807	448.351900566712	0
0	4820	449.836364458737	1
0	4824	450.836364458737	0
0	4830	450.916052786458	1
0	4831	450.916052786458	2
0	4837	451.836364458737	1
0	4843	452.836364458737	0
0	4849	453.084245895505	1
0	4850	453.084245895505	2
0	4859	453.836364458737	1
0	4870	454.836364458737	0
0	4886	456.02474524779	1
0	4890	457.02474524779	0
0	4900	458.477096881237	1
0	4906	459.477096881237	0
0	4915	460.175739036657	1
0	4916	460.175739036657	2
0	4922	460.477096881237	1
0	4933	461.477096881237	0
0	4942	461.972077268125	1
0	4943	461.972077268125	2
0	4952	462.477096881237	1
0	4961	463.477096881237	0
0	4967	463.696048428057	1
0	4968	463.696048428057	2
0	4972	464.477096881237	1
0	4983	465.477096881237	0
0	4989	465.506376797989	1
0	4990	465.506376797989	2
0	4999	466.477096881237	1
0	5010	467.477096881237	0
0	5032	468.963910362939	1
0	5043	469.963910362939	0
0	5049	470.257418462286	1
0	5050	470.257418462286	2
0	5057	470.963910362939	1
0	5071	471.963910362939	0
0	5080	472.76644339205	1
0	5081	472.76644339205	2
0	5082	472.963910362939	1
0	5098	473.963910362939	0
0	5114	475.043174611288	1
0	5121	476.043174611288	0
0	5127	476.679138335371	1
0	5128	476.679138335371	2
0	5129	477.043174611288	1
0	5137	478.043174611288	0
0	5146	478.873179717817	1
0	5147	478.873179717817	2
0	5148	479.043174611288	1
0	5154	480.043174611288	0
0	5164	481.181766631622	1
0	5165	482.181766631622	0
0	5171	482.261797652707	1
0	5172	482.261797652707	2
0	5178	483.181766631622	1
0	5189	484.181766631622	0
0	5201	484.651342252072	1
0	5202	484.651342252072	2
0	5203	485.181766631622	1
0	5214	486.181766631622	0
0	5223	486.64221789896	1
0	5224	486.64221789896	2
0	5225	487.181766631622	1
0	5236	488.181766631622	0
0	5242	488.486603324967	1
0	5243	488.486603324967	2
0	5252	489.181766631622	1
0	5263	490.181766631622	0
0	5285	493.170162477055	1
0	5291	494.170162477055	0
0	5300	494.505920528421	1
0	5301	494.505920528421	2
0	5302	495.170162477055	1
0	5313	496.170162477055	0
0	5326	497.255872335482	1
0	5330	498.255872335482	0
0	5336	498.582063858409	1
0	5337	498.582063858409	2
0	5338	499.255872335482	1
0	5346	500.255872335482	0
0	5355	500.892235637515	1
0	5356	500.892235637515	2
0	5357	501.255872335482	1
0	5368	502.255872335482	0
0	5374	502.974221460402	1
0	5375	502.974221460402	2
0	5384	503.255872335482	1
0	5395	504.255872335482	0
0	5401	504.59826060611	1
0	5402	504.59826060611	2
0	5409	505.255872335482	1
0	5423	506.255872335482	0
0	5436	507.687998828539	1
0	5445	508.687998828539	0
0	5451	509.131751544337	1
0	5452	509.131751544337	2
0	5456	509.687998828539	1
0	5472	510.687998828539	0
0	5488	511.990817149769	1
0	5495	512.990817149769	0
0	5501	513.670687156143	1
0	5502	513.670687156143	2
0	5503	513.990817149769	1
0	5511	514.990817149769	0
0	5520	515.902358818743	1
0	5521	515.902358818743	2
0	5522	515.990817149769	1
0	5533	516.990817149769	0
0	5539	517.188736036606	1
0	5540	517.188736036606	2
0	5544	517.990817149769	1
0	5555	518.990817149769	0
0	5561	519.649240819979	1
0	5562	519.649240819979	2
0	5566	519.990817149769	1
0	5577	520.990817149769	0
0	5583	521.445096072394	1
0	5584	521.445096072394	2
0	5588	521.990817149769	1
0	5594	522.990817149769	0
0	5600	523.253890555212	1
0	5601	523.253890555212	2
0	5617	523.990817149769	1
0	5634	524.990817149769	0
0	5656	526.366883337611	1
0	5665	527.366883337611	0
0	5671	527.680992146577	1
0	5672	527.680992146577	2
0	5676	528.366883337611	1
0	5687	529.366883337611	0
0	5693	529.488032938172	1
0	5694	529.488032938172	2
0	5698	530.366883337611	1
0	5709	531.366883337611	0
0	5715	531.783108312792	1
0	5716	531.783108312792	2
0	5720	532.366883337611	1
0	5731	533.366883337611	0
0	5744	534.599891028519	1
0	5748	535.599891028519	0
0	5754	536.048427196955	1
0	5755	536.048427196955	2
0	5756	536.599891028519	1
0	5764	537.599891028519	0
0	5777	538.730068209347	1
0	5781	539.730068209347	0
0	5787	540.195517911412	1
0	5788	540.195517911412	2
0	5794	540.730068209347	1
0	5805	541.730068209347	0
0	5821	542.967009221916	1
0	5825	543.967009221916	0
0	5831	544.100890132302	1
0	5832	544.100890132302	2
0	5833	544.967009221916	1
0	5841	545.967009221916	0
0	5847	546.148584912197	1
0	5848	546.148584912197	2
0	5852	546.967009221916	1
0	5863	547.967009221916	0
0	5876	549.238453620785	1
0	5885	550.238453620785	0
0	5901	552.574804779886	1
0	5907	553.574804779886	0
0	5920	554.655533766638	1
0	5929	555.655533766638	0
0	5938	556.420431701791	1
0	5939	556.420431701791	2
0	5940	556.655533766638	1
0	5956	557.655533766638	0
0	5962	558.082765053437	1
0	5963	558.082765053437	2
0	5970	558.655533766638	1
0	5984	559.655533766638	0
0	5990	560.044014319669	1
0	5991	560.044014319669	2
0	5995	560.655533766638	1
0	6006	561.655533766638	0
0	6012	562.292894339786	1
0	6013	562.292894339786	2
0	6017	562.655533766638	1
0	6028	563.655533766638	0
0	6041	565.254496358897	1
0	6045	566.254496358897	0
0	6051	567.233793674825	1
0	6052	567.233793674825	2
0	6053	567.254496358897	1
0	6061	568.254496358897	0
0	6067	568.375822995944	1
0	6068	568.375822995944	2
0	6072	569.254496358897	1
0	6078	570.254496358897	0
0	6084	570.361845153737	1
0	6085	570.361845153737	2
0	6091	571.254496358897	1
0	6102	572.254496358897	0
0	6108	572.609940550011	1
0	6109	572.609940550011	2
0	6121	573.254496358897	1
0	6135	574.254496358897	0
0	6141	575.129811137052	1
0	6142	575.129811137052	2
0	6149	575.254496358897	1
0	6155	576.254496358897	0
0	6161	576.696675276321	1
0	6162	576.696675276321	2
0	6163	577.254496358897	1
0	6176	578.254496358897	0
0	6192	579.359160771637	1
0	6199	580.359160771637	0
0	6205	581.261531773894	1
0	6206	581.261531773894	2
0	6207	581.359160771637	1
0	6215	582.359160771637	0
0	6231	583.811628276748	1
0	6237	584.811628276748	0
0	6243	585.417892351467	1
0	6244	585.417892351467	2
0	6248	585.811628276748	1
0	6264	586.811628276748	0
0	6280	587.995987963489	1
0	6292	588.995987963489	0
0	6298	589.43618218977	1
0	6299	589.43618218977	2
0	6303	589.995987963489	1
0	6314	590.995987963489	0
0	6327	591.998670761552	1
0	6336	592.998670761552	0
0	6349	594.707883839199	1
0	6353	595.707883839199	0
0	6359	596.214637560831	1
0	6360	596.214637560831	2
0	6361	596.707883839199	1
0	6364	597.707883839199	0
0	6370	598.341148317024	1
0	6371	598.341148317024	2
0	6372	598.707883839199	1
0	6380	599.707883839199	0
0	6386	599.983151492359	1
0	6387	599.983151492359	2
0	6396	600.707883839199	1
0	6407	601.707883839199	0
0	6423	602.977391254229	1
0	6435	603.977391254229	0
0	6441	604.24666893796	1
0	6442	604.24666893796	2
0	6446	604.977391254229	1
0	6457	605.977391254229	0
0	6463	606.357252586266	1
0	6464	606.357252586266	2
0	6468	606.977391254229	1
0	6479	607.977391254229	0
0	6492	609.105487417574	1
0	6501	610.105487417574	0
0	6507	610.490632506554	1
0	6508	610.490632506554	2
0	6512	611.105487417574	1
0	6528	612.105487417574	0
0	6534	612.72604604114	1
0	6535	612.72604604114	2
0	6542	613.105487417574	1
0	6561	614.105487417574	0
0	6577	615.864485836949	1
0	6589	616.864485836949	0
0	6602	617.977560220346	1
0	6606	618.977560220346	0
0	6616	620.270270012693	1
0	6622	621.270270012693	0
0	6631	621.874001159103	1
0	6632	621.874001159103	2
0	6633	622.270270012693	1
0	6644	623.270270012693	0
0	6650	623.732840227692	1
0	6651	623.732840227692	2
0	6655	624.270270012693	1
0	6666	625.270270012693	0
0	6672	625.527604763784	1
0	6673	625.527604763784	2
0	6682	626.270270012693	1
0	6693	627.270270012693	0
0	6709	628.693232212798	1
0	6721	629.693232212798	0
0	6727	630.169422420961	1
0	6728	630.169422420961	2
0	6732	630.693232212798	1
0	6738	631.693232212798	0
0	6744	632.052163381676	1
0	6745	632.052163381676	2
0	6751	632.693232212798	1
0	6757	633.693232212798	0
0	6763	634.170836794097	1
0	6764	634.170836794097	2
0	6768	634.693232212798	1
0	6776	635.693232212798	0
0	6782	635.714225882144	1
0	6783	635.714225882144	2
0	6792	636.693232212798	1
0	6808	637.693232212798	0
0	6827	638.731753915112	1
0	6842	639.731753915112	0
0	6848	640.116909064961	1
0	6849	640.116909064961	2
0	6853	640.731753915112	1
0	6859	641.731753915112	0
0	6865	642.104474244995	1
0	6866	642.104474244995	2
0	6872	642.731753915112	1
0	6878	643.731753915112	0
0	6884	644.313952806659	1
0	6885	644.313952806659	2
0	6889	644.731753915112	1
0	6892	645.731753915112	0
0	6898	646.049692218494	1
0	6899	646.049692218494	2