version 3
run MMc-16-20221127-11:38:40-7588
attr configname MMc
attr datetime 20221127-11:38:40
attr datetimef 20221127-113840
attr experiment MMc
attr inifile omnetpp.ini
attr iterationvars "$mean=uniform(0.5s, 1.5s), $dev=0.5*(uniform(0.5s, 1.5s)), $time=1.5, $num=3, $0=53542, $1=75335, $2=34542"
attr iterationvarsd mean=uniform(0.5s,_1.5s)/dev=0.5#2a(uniform(0.5s,_1.5s))/time=1.5/num=3/53542/75335/34542
attr iterationvarsf mean=uniform(0.5s,_1.5s),dev=0.5#2a(uniform(0.5s,_1.5s)),time=1.5,num=3,53542,75335,34542-
attr measurement "$mean=uniform(0.5s, 1.5s), $dev=0.5*(uniform(0.5s, 1.5s)), $time=1.5, $num=3, $0=53542, $1=75335, $2=34542"
attr network MMc
attr processid 7588
attr repetition 0
attr replication #0
attr resultdir results
attr runnumber 16
attr seedset 16
itervar dev "0.5*(uniform(0.5s, 1.5s))"
itervar mean "uniform(0.5s, 1.5s)"
itervar num 3
itervar time 1.5
config description "MMc module"
config network MMc
config MMc.source.interArrivalTime "truncnormal(uniform(0.5s, 1.5s), 0.5*(uniform(0.5s, 1.5s)))"
config MMc.mmc.serviceTime 1.5s
config MMc.mmc.c 3
config MMc.mmc.capacity 10000
config record-eventlog false
config **.scalar-recording true
config **.vector-recording true
config repeat 4
config seed-1-mt 53542
config seed-2-mt 75335
config seed-3-mt 34542
config output-vector-file MMc-3-1.5-results/0.vec
config output-scalar-file MMc-3-1.5-results/0.sca

vector 0 MMc.mmc queueLength:vector ETV
attr interpolationmode none
attr recordingmode vector
attr title "queue length"
vector 1 MMc.mmc util:vector ETV
attr interpolationmode none
attr recordingmode vector
attr title resources
0	0	0	0
0	6	11.19584491267	1
0	7	11.5	0
0	13	12.325767093898	1
0	14	12.69584491267	0
0	20	13.42943874197	1
0	21	13.825767093898	0
0	27	14.847650393068	1
0	28	14.92943874197	0
0	34	15.830212002337	1
0	35	16.347650393068	0
0	38	16.361801982261	1
0	39	16.361801982261	2
0	40	16.42943874197	1
0	43	17.025912039368	2
0	44	17.025912039368	3
0	45	17.330212002337	2
0	47	17.847650393068	1
0	49	17.92943874197	0
0	52	18.630900412286	1
0	53	18.630900412286	2
0	54	18.830212002337	1
0	57	19.228773777436	2
0	58	19.228773777436	3
0	59	19.347650393068	2
0	61	19.42943874197	1
0	64	20.190705568318	2
0	65	20.190705568318	3
0	66	20.330212002337	2
0	68	20.847650393068	1
0	70	20.92943874197	0
0	73	21.554810014232	1
0	74	21.554810014232	2
0	75	21.830212002337	1
0	77	22.347650393068	0
0	83	22.5523523796	1
0	84	23.330212002337	0
0	87	23.83542272512	1
0	88	23.83542272512	2
0	89	23.847650393068	1
0	92	23.88037041752	2
0	93	23.88037041752	3
0	94	24.0523523796	2
0	97	24.582164892959	3
0	98	24.582164892959	4
0	99	24.830212002337	3
0	101	25.347650393068	2
0	103	25.5523523796	1
0	106	26.065084958429	2
0	107	26.065084958429	3
0	108	26.330212002337	2
0	110	26.847650393068	1
0	112	27.0523523796	0
0	118	27.849027401615	1
0	119	28.347650393068	0
0	132	29.931128452383	1
0	133	30.895089490552	0
0	139	31.33182224348	1
0	140	31.431128452383	0
0	146	32.469635212038	1
0	147	32.83182224348	0
0	153	33.152452948703	1
0	154	33.969635212038	0
0	160	34.363188967229	1
0	161	34.652452948703	0
0	164	35.338594122057	1
0	165	35.338594122057	2
0	166	35.469635212038	1
0	168	35.863188967229	0
0	174	36.250168886281	1
0	176	36.935903070787	2
0	177	36.935903070787	3
0	178	36.969635212038	2
0	180	37.363188967229	1
0	183	37.662392389269	2
0	184	37.662392389269	3
0	185	37.750168886281	2
0	187	38.469635212038	1
0	189	38.863188967229	0
0	202	40.97301016484	1
0	204	41.263926820832	2
0	205	41.263926820832	3
0	207	41.880990334913	4
0	208	41.880990334913	5
0	209	41.96417561644	4
0	210	41.96417561644	3
0	213	42.47301016484	2
0	216	43.318572459648	3
0	217	43.318572459648	4
0	218	43.46417561644	3
0	219	43.46417561644	2
0	222	43.97301016484	1
0	225	44.329055297107	2
0	226	44.329055297107	3
0	227	44.96417561644	2
0	228	44.96417561644	1
0	231	45.47301016484	0
0	234	46.089664483683	1
0	235	46.089664483683	2
0	236	46.46417561644	1
0	237	46.46417561644	0
0	244	47.115541809492	1
0	246	47.752856499501	2
0	247	47.752856499501	3
0	248	47.96417561644	2
0	249	47.96417561644	1
0	252	48.615541809492	0
0	255	48.634370660252	1
0	256	48.634370660252	2
0	257	49.46417561644	1
0	258	49.46417561644	0
0	262	49.722119953625	1
0	263	49.722119953625	2
0	264	50.115541809492	1
0	266	50.96417561644	0
0	272	51.43025577611	1
0	273	51.615541809492	0
0	279	52.582180718033	1
0	280	52.93025577611	0
0	286	53.607489436437	1
0	287	54.082180718033	0
0	293	55.040973732243	1
0	295	55.09836953457	2
0	296	55.09836953457	3
0	297	55.107489436437	2
0	299	55.582180718033	1
0	301	56.540973732243	0
0	307	56.878724262336	1
0	308	57.082180718033	0
0	311	57.293781051436	1
0	312	57.293781051436	2
0	313	58.040973732243	1
0	316	58.260181242495	2
0	317	58.260181242495	3
0	318	58.378724262336	2
0	320	58.582180718033	1
0	322	59.540973732243	0
0	332	60.786949392918	1
0	333	60.786949392918	2
0	334	61.040973732243	1
0	337	61.907248105052	2
0	338	61.907248105052	3
0	339	62.107561326799	2
0	340	62.107561326799	1
0	343	62.540973732243	0
0	356	64.958452805235	1
0	357	65.325865070897	0
0	363	65.791988010362	1
0	364	66.458452805235	0
0	370	66.982386117006	1
0	371	67.291988010362	0
0	374	67.760604544151	1
0	375	67.760604544151	2
0	376	67.958452805235	1
0	378	68.482386117006	0
0	384	69.107965859318	1
0	385	69.458452805235	0
0	388	69.625213123399	1
0	389	69.625213123399	2
0	390	69.982386117006	1
0	392	70.607965859318	0
0	398	71.256004507217	1
0	399	71.482386117006	0
0	402	71.962109945082	1
0	403	71.962109945082	2
0	404	72.107965859318	1
0	406	72.756004507217	0
0	412	73.259445624277	1
0	413	73.607965859318	0
0	426	75.985726968146	1
0	428	76.220189647634	2
0	429	76.220189647634	3
0	430	76.357591979148	2
0	431	76.357591979148	1
0	435	76.673734742151	2
0	436	76.673734742151	3
0	437	77.485726968146	2
0	439	77.857591979148	1
0	440	77.857591979148	0
0	444	77.911367240909	1
0	445	77.911367240909	2
0	447	78.733549948316	3
0	448	78.733549948316	4
0	449	78.985726968146	3
0	451	79.357591979148	2
0	452	79.357591979148	1
0	456	79.755283180223	2
0	457	79.755283180223	3
0	458	80.485726968146	2
0	460	80.857591979148	1
0	461	80.857591979148	0
0	465	81.304195782626	1
0	466	81.304195782626	2
0	467	81.985726968146	1
0	470	82.179001988681	2
0	471	82.179001988681	3
0	472	82.357591979148	2
0	473	82.357591979148	1
0	477	83.268408985861	2
0	478	83.268408985861	3
0	479	83.485726968146	2
0	481	83.857591979148	1
0	482	83.857591979148	0
0	486	84.160392276792	1
0	487	84.160392276792	2
0	489	84.924578471765	3
0	490	84.924578471765	4
0	491	84.985726968146	3
0	493	85.357591979148	2
0	494	85.357591979148	1
0	498	85.882540575897	2
0	499	85.882540575897	3
0	500	86.485726968146	2
0	502	86.857591979148	1
0	503	86.857591979148	0
0	507	87.021392442922	1
0	508	87.021392442922	2
0	510	87.730574870534	3
0	511	87.730574870534	4
0	512	87.985726968146	3
0	514	88.357591979148	2
0	515	88.357591979148	1
0	519	89.180566528108	2
0	520	89.180566528108	3
0	521	89.485726968146	2
0	523	89.857591979148	1
0	524	89.857591979148	0
0	538	93.246793516085	1
0	539	93.295916736396	0
0	545	94.328274358825	1
0	547	94.404064906676	2
0	548	94.404064906676	3
0	549	94.746793516085	2
0	551	94.795916736396	1
0	554	95.035975500513	2
0	555	95.035975500513	3
0	557	95.426589617131	4
0	558	95.426589617131	5
0	559	95.828274358825	4
0	562	95.940775454196	5
0	563	95.940775454196	6
0	564	96.246793516085	5
0	566	96.295916736396	4
0	568	97.328274358825	3
0	570	97.746793516085	2
0	573	97.774320052096	3
0	574	97.774320052096	4
0	575	97.795916736396	3
0	577	98.828274358825	2
0	580	98.928295262697	3
0	581	98.928295262697	4
0	582	99.246793516085	3
0	584	99.295916736396	2
0	586	100.328274358825	1
0	589	100.7095781284	2
0	590	100.7095781284	3
0	591	100.746793516085	2
0	593	100.795916736396	1
0	595	101.828274358825	0
0	598	101.873406569443	1
0	599	101.873406569443	2
0	600	102.246793516085	1
0	602	102.295916736396	0
0	605	102.46010587519	1
0	606	102.46010587519	2
0	608	102.803884935149	3
0	609	102.803884935149	4
0	611	103.217470248096	5
0	612	103.217470248096	6
0	613	103.328274358825	5
0	615	103.746793516085	4
0	617	103.795916736396	3
0	620	104.017159889977	4
0	621	104.017159889977	5
0	622	104.828274358825	4
0	625	104.966584635038	5
0	626	104.966584635038	6
0	627	105.246793516085	5
0	629	105.295916736396	4
0	632	105.556839819715	5
0	633	105.556839819715	6
0	634	106.328274358825	5
0	637	106.735971502142	6
0	638	106.735971502142	7
0	639	106.746793516085	6
0	641	106.795916736396	5
0	644	107.638710535335	6
0	645	107.638710535335	7
0	646	107.828274358825	6
0	648	108.246793516085	5
0	650	108.295916736396	4
0	653	108.302017176412	5
0	654	108.302017176412	6
0	656	108.643514035562	7
0	657	108.643514035562	8
0	658	109.328274358825	7
0	660	109.746793516085	6
0	662	109.795916736396	5
0	665	110.392283398853	6
0	666	110.392283398853	7
0	667	110.828274358825	6
0	669	111.246793516085	5
0	672	111.293350723644	6
0	673	111.293350723644	7
0	674	111.295916736396	6
0	676	112.328274358825	5
0	679	112.607368490631	6
0	680	112.607368490631	7
0	681	112.746793516085	6
0	683	112.795916736396	5
0	685	113.828274358825	4
0	688	114.049212378287	5
0	689	114.049212378287	6
0	690	114.246793516085	5
0	692	114.295916736396	4
0	695	114.648145943949	5
0	696	114.648145943949	6
0	698	115.101036741399	7
0	699	115.101036741399	8
0	700	115.328274358825	7
0	702	115.746793516085	6
0	704	115.795916736396	5
0	707	116.60578680145	6
0	708	116.60578680145	7
0	709	116.828274358825	6
0	711	117.246793516085	5
0	713	117.295916736396	4
0	716	117.989398819976	5
0	717	117.989398819976	6
0	718	118.328274358825	5
0	720	118.746793516085	4
0	722	118.795916736396	3
0	725	119.440259600267	4
0	726	119.440259600267	5
0	727	119.828274358825	4
0	729	120.246793516085	3
0	731	120.295916736396	2
0	734	120.419537709269	3
0	735	120.419537709269	4
0	737	120.926647474809	5
0	738	120.926647474809	6
0	739	121.328274358825	5
0	741	121.746793516085	4
0	743	121.795916736396	3
0	746	122.320403307791	4
0	747	122.320403307791	5
0	748	122.828274358825	4
0	751	122.898219703553	5
0	752	122.898219703553	6
0	753	123.246793516085	5
0	755	123.295916736396	4
0	758	123.975382160071	5
0	759	123.975382160071	6
0	760	124.328274358825	5
0	762	124.746793516085	4
0	764	124.795916736396	3
0	767	125.624924426295	4
0	768	125.624924426295	5
0	769	125.828274358825	4
0	771	126.246793516085	3
0	773	126.295916736396	2
0	776	126.752190905755	3
0	777	126.752190905755	4
0	778	127.328274358825	3
0	780	127.746793516085	2
0	782	127.795916736396	1
0	785	128.051205486411	2
0	786	128.051205486411	3
0	788	128.567105358996	4
0	789	128.567105358996	5
0	790	128.828274358825	4
0	792	129.246793516085	3
0	794	129.295916736396	2
0	797	129.929487246478	3
0	798	129.929487246478	4
0	799	130.328274358825	3
0	801	130.746793516085	2
0	803	130.795916736396	1
0	806	131.287204468547	2
0	807	131.287204468547	3
0	808	131.828274358825	2
0	810	132.246793516085	1
0	813	132.288336230457	2
0	814	132.288336230457	3
0	815	132.295916736396	2
0	818	133.222024602374	3
0	819	133.222024602374	4
0	820	133.328274358825	3
0	822	133.746793516085	2
0	824	133.795916736396	1
0	827	134.261978916694	2
0	828	134.261978916694	3
0	830	134.351470227534	4
0	831	134.351470227534	5
0	832	134.828274358825	4
0	835	135.189662052891	5
0	836	135.189662052891	6
0	837	135.246793516085	5
0	839	135.295916736396	4
0	842	135.854399398336	5
0	843	135.854399398336	6
0	844	136.328274358825	5
0	846	136.746793516085	4
0	848	136.795916736396	3
0	851	137.413639071684	4
0	852	137.413639071684	5
0	853	137.828274358825	4
0	855	138.246793516085	3
0	857	138.295916736396	2
0	860	138.340513746248	3
0	861	138.340513746248	4
0	862	139.328274358825	3
0	865	139.44379577614	4
0	866	139.44379577614	5
0	867	139.746793516085	4
0	869	139.795916736396	3
0	871	140.828274358825	2
0	874	141.015577717921	3
0	875	141.015577717921	4
0	876	141.246793516085	3
0	878	141.295916736396	2
0	881	141.348816459581	3
0	882	141.348816459581	4
0	883	142.328274358825	3
0	886	142.694389938756	4
0	887	142.694389938756	5
0	888	142.746793516085	4
0	890	142.795916736396	3
0	892	143.828274358825	2
0	895	144.226435625392	3
0	896	144.226435625392	4
0	897	144.246793516085	3
0	899	144.295916736396	2
0	901	145.328274358825	1
0	904	145.389042515133	2
0	905	145.389042515133	3
0	906	145.746793516085	2
0	908	145.795916736396	1
0	911	145.797686409048	2
0	912	145.797686409048	3
0	914	146.573045667354	4
0	915	146.573045667354	5
0	916	146.828274358825	4
0	918	147.246793516085	3
0	920	147.295916736396	2
0	923	147.31472251437	3
0	924	147.31472251437	4
0	925	148.328274358825	3
0	928	148.343137239796	4
0	929	148.343137239796	5
0	930	148.746793516085	4
0	932	148.795916736396	3
0	935	149.695521055622	4
0	936	149.695521055622	5
0	937	149.828274358825	4
0	939	150.246793516085	3
0	941	150.295916736396	2
0	944	150.661356646005	3
0	945	150.661356646005	4
0	946	151.328274358825	3
0	949	151.474734537825	4
0	950	151.474734537825	5
0	951	151.746793516085	4
0	953	151.795916736396	3
0	956	152.445452758746	4
0	957	152.445452758746	5
0	958	152.828274358825	4
0	960	153.246793516085	3
0	962	153.295916736396	2
0	965	153.431727234038	3
0	966	153.431727234038	4
0	967	154.328274358825	3
0	969	154.746793516085	2
0	971	154.795916736396	1
0	974	154.796396446689	2
0	975	154.796396446689	3
0	976	155.828274358825	2
0	978	156.246793516085	1
0	980	156.295916736396	0
0	983	156.694257569342	1
0	984	156.694257569342	2
0	985	157.328274358825	1
0	987	157.746793516085	0
0	993	157.870604050807	1
0	994	158.828274358825	0
0	997	159.026274154567	1
0	998	159.026274154567	2
0	999	159.246793516085	1
0	1001	159.370604050807	0
0	1014	162.49460253057	1
0	1015	162.531165629151	0
0	1021	163.626692316604	1
0	1022	163.99460253057	0
0	1035	166.067321476977	1
0	1037	167.072729450035	2
0	1038	167.072729450035	3
0	1039	167.16842573889	2
0	1040	167.16842573889	1
0	1043	167.567321476977	0
0	1046	167.935616426828	1
0	1047	167.935616426828	2
0	1048	168.66842573889	1
0	1049	168.66842573889	0
0	1053	168.741960957801	1
0	1054	168.741960957801	2
0	1056	168.943059725028	3
0	1057	168.943059725028	4
0	1058	169.067321476977	3
0	1060	170.16842573889	2
0	1061	170.16842573889	1
0	1064	170.567321476977	0
0	1067	170.677705935314	1
0	1068	170.677705935314	2
0	1070	171.277894364657	3
0	1071	171.277894364657	4
0	1072	171.66842573889	3
0	1073	171.66842573889	2
0	1076	172.067321476977	1
0	1079	172.329301789864	2
0	1080	172.329301789864	3
0	1081	173.16842573889	2
0	1082	173.16842573889	1
0	1085	173.567321476977	0
0	1088	174.293769550774	1
0	1089	174.293769550774	2
0	1090	174.66842573889	1
0	1091	174.66842573889	0
0	1098	175.708590043347	1
0	1099	176.16842573889	0
0	1112	178.42174094228	1
0	1113	179.018630282006	0
0	1133	183.243114161604	1
0	1135	183.797438680952	2
0	1136	183.797438680952	3
0	1137	183.934306425909	2
0	1138	183.934306425909	1
0	1141	184.743114161604	0
0	1154	186.731810577524	1
0	1155	186.950837763123	0
0	1161	187.448159938735	1
0	1162	188.231810577524	0
0	1168	188.521332868376	1
0	1169	188.948159938735	0
0	1172	189.206018331708	1
0	1173	189.206018331708	2
0	1174	189.731810577524	1
0	1176	190.021332868376	0
0	1182	190.776883330541	1
0	1183	191.231810577524	0
0	1189	192.105368123923	1
0	1190	192.276883330541	0
0	1193	192.498451129564	1
0	1194	192.498451129564	2
0	1195	192.731810577524	1
0	1197	193.605368123923	0
0	1200	193.711236911205	1
0	1201	193.711236911205	2
0	1202	193.776883330541	1
0	1204	194.231810577524	0
0	1207	194.867890445417	1
0	1208	194.867890445417	2
0	1209	195.105368123923	1
0	1211	195.276883330541	0
0	1214	195.653621451707	1
0	1215	195.653621451707	2
0	1216	195.731810577524	1
0	1218	196.605368123923	0
0	1221	196.616230673474	1
0	1222	196.616230673474	2
0	1223	196.776883330541	1
0	1225	197.231810577524	0
0	1231	198.179782771755	1
0	1232	198.276883330541	0
0	1238	199.673527634572	1
0	1239	199.679782771755	0
0	1259	203.933803435756	1
0	1260	204.656021362043	0
0	1266	204.888896374165	1
0	1267	205.433803435756	0
0	1273	206.2479432111	1
0	1274	206.388896374165	0
0	1280	207.612039989432	1
0	1281	207.7479432111	0
0	1287	208.062590453237	1
0	1289	209.056756249414	2
0	1290	209.056756249414	3
0	1291	209.112039989432	2
0	1293	209.2479432111	1
0	1295	209.562590453237	0
0	1301	210.690800414214	1
0	1302	210.7479432111	0
0	1308	211.721115991829	1
0	1310	212.10279945006	2
0	1311	212.10279945006	3
0	1312	212.190800414214	2
0	1314	212.2479432111	1
0	1316	213.221115991829	0
0	1336	216.179032275379	1
0	1338	216.834048718927	2
0	1339	216.834048718927	3
0	1340	217.172216618344	2
0	1341	217.172216618344	1
0	1345	217.571762367917	2
0	1346	217.571762367917	3
0	1347	217.679032275379	2
0	1350	217.702333362812	3
0	1351	217.702333362812	4
0	1353	218.451589041148	5
0	1354	218.451589041148	6
0	1355	218.672216618344	5
0	1356	218.672216618344	4
0	1360	218.817948401478	5
0	1361	218.817948401478	6
0	1362	219.179032275379	5
0	1365	220.16797629034	6
0	1366	220.16797629034	7
0	1367	220.172216618344	6
0	1368	220.172216618344	5
0	1371	220.679032275379	4
0	1373	221.672216618344	3
0	1374	221.672216618344	2
0	1378	221.830234843476	3
0	1379	221.830234843476	4
0	1380	222.179032275379	3
0	1383	222.825343158008	4
0	1384	222.825343158008	5
0	1385	223.172216618344	4
0	1386	223.172216618344	3
0	1389	223.679032275379	2
0	1392	223.92148797881	3
0	1393	223.92148797881	4
0	1395	224.326999809725	5
0	1396	224.326999809725	6
0	1397	224.672216618344	5
0	1398	224.672216618344	4
0	1401	225.179032275379	3
0	1404	225.36887850956	4
0	1405	225.36887850956	5
0	1406	226.172216618344	4
0	1407	226.172216618344	3
0	1410	226.679032275379	2
0	1413	226.909795880459	3
0	1414	226.909795880459	4
0	1415	227.672216618344	3
0	1416	227.672216618344	2
0	1420	227.874740052796	3
0	1421	227.874740052796	4
0	1422	228.179032275379	3
0	1425	228.754614010131	4
0	1426	228.754614010131	5
0	1427	229.172216618344	4
0	1428	229.172216618344	3
0	1431	229.679032275379	2
0	1434	230.471480898028	3
0	1435	230.471480898028	4
0	1436	230.672216618344	3
0	1437	230.672216618344	2
0	1441	230.820101997596	3
0	1442	230.820101997596	4
0	1443	231.179032275379	3
0	1446	231.626608644607	4
0	1447	231.626608644607	5
0	1448	232.172216618344	4
0	1449	232.172216618344	3
0	1452	232.679032275379	2
0	1455	232.758238766014	3
0	1456	232.758238766014	4
0	1457	233.672216618344	3
0	1458	233.672216618344	2
0	1462	234.030472749779	3
0	1463	234.030472749779	4
0	1464	234.179032275379	3
0	1466	235.172216618344	2
0	1467	235.172216618344	1
0	1471	235.582559930592	2
0	1472	235.582559930592	3
0	1473	235.679032275379	2
0	1476	236.406567597849	3
0	1477	236.406567597849	4
0	1478	236.672216618344	3
0	1479	236.672216618344	2
0	1482	237.179032275379	1
0	1485	237.466816997745	2
0	1486	237.466816997745	3
0	1487	238.172216618344	2
0	1488	238.172216618344	1
0	1491	238.679032275379	0
0	1494	239.102359721887	1
0	1495	239.102359721887	2
0	1496	239.672216618344	1
0	1497	239.672216618344	0
0	1511	242.493311453533	1
0	1512	243.173851301288	0
0	1518	243.70783177444	1
0	1519	243.993311453533	0
0	1522	244.358380341461	1
0	1523	244.358380341461	2
0	1524	244.673851301288	1
0	1526	245.20783177444	0
0	1529	245.474115779854	1
0	1530	245.474115779854	2
0	1531	245.493311453533	1
0	1533	246.173851301288	0
0	1543	247.535533740677	1
0	1544	247.535533740677	2
0	1545	247.673851301288	1
0	1547	248.667341789387	0
0	1553	249.000420915222	1
0	1554	249.173851301288	0
0	1557	249.322534904955	1
0	1558	249.322534904955	2
0	1559	250.167341789387	1
0	1562	250.267915398513	2
0	1563	250.267915398513	3
0	1564	250.500420915222	2
0	1566	250.673851301288	1
0	1569	251.083431991812	2
0	1570	251.083431991812	3
0	1571	251.667341789387	2
0	1573	252.000420915222	1
0	1575	252.173851301288	0
0	1578	252.487290624416	1
0	1579	252.487290624416	2
0	1580	253.167341789387	1
0	1582	253.500420915222	0
0	1588	253.692834961088	1
0	1589	254.667341789387	0
0	1592	254.965427554987	1
0	1593	254.965427554987	2
0	1594	255.000420915222	1
0	1596	255.192834961088	0
0	1616	258.864574186563	1
0	1618	259.915358912873	2
0	1619	259.915358912873	3
0	1620	259.969101426539	2
0	1621	259.969101426539	1
0	1624	260.364574186563	0
0	1627	260.823787211722	1
0	1628	260.823787211722	2
0	1629	261.469101426539	1
0	1630	261.469101426539	0
0	1637	262.458985042725	1
0	1638	262.969101426539	0
0	1644	263.125825853779	1
0	1646	263.825971810207	2
0	1647	263.825971810207	3
0	1648	263.958985042725	2
0	1650	264.469101426539	1
0	1652	264.625825853779	0
0	1655	265.175741342227	1
0	1656	265.175741342227	2
0	1657	265.458985042725	1
0	1659	265.969101426539	0
0	1665	266.331395064898	1
0	1666	266.958985042725	0
0	1679	269.247955106792	1
0	1680	269.441497076979	0
0	1686	270.582848402957	1
0	1687	270.747955106792	0
0	1693	271.492199332205	1
0	1694	272.082848402957	0
0	1707	273.622501813917	1
0	1709	274.136026173387	2
0	1710	274.136026173387	3
0	1712	274.480846422944	4
0	1713	274.480846422944	5
0	1714	274.550848977304	4
0	1715	274.550848977304	3
0	1718	275.122501813917	2
0	1720	276.050848977304	1
0	1721	276.050848977304	0
0	1728	276.969737735645	1
0	1730	277.175683294755	2
0	1731	277.175683294755	3
0	1733	277.530420160287	4
0	1734	277.530420160287	5
0	1735	277.550848977304	4
0	1736	277.550848977304	3
0	1740	277.770722227712	4
0	1741	277.770722227712	5
0	1742	278.469737735645	4
0	1745	278.473471568354	5
0	1746	278.473471568354	6
0	1747	279.050848977304	5
0	1748	279.050848977304	4
0	1752	279.519065680986	5
0	1753	279.519065680986	6
0	1754	279.969737735645	5
0	1757	280.520122398891	6
0	1758	280.520122398891	7
0	1759	280.550848977304	6
0	1760	280.550848977304	5
0	1763	281.469737735645	4
0	1766	281.505146340327	5
0	1767	281.505146340327	6
0	1768	282.050848977304	5
0	1769	282.050848977304	4
0	1772	282.969737735645	3
0	1775	283.380688146766	4
0	1776	283.380688146766	5
0	1777	283.550848977304	4
0	1778	283.550848977304	3
0	1782	283.961102600941	4
0	1783	283.961102600941	5
0	1784	284.469737735645	4
0	1787	284.574592965429	5
0	1788	284.574592965429	6
0	1789	285.050848977304	5
0	1790	285.050848977304	4
0	1794	285.219898527279	5
0	1795	285.219898527279	6
0	1797	285.593709950368	7
0	1798	285.593709950368	8
0	1800	285.821771628274	9
0	1801	285.821771628274	10
0	1802	285.969737735645	9
0	1804	286.550848977304	8
0	1805	286.550848977304	7
0	1809	286.905300171498	8
0	1810	286.905300171498	9
0	1811	287.469737735645	8
0	1814	287.828940598405	9
0	1815	287.828940598405	10
0	1816	288.050848977304	9
0	1817	288.050848977304	8
0	1821	288.761491030612	9
0	1822	288.761491030612	10
0	1823	288.969737735645	9
0	1825	289.550848977304	8
0	1826	289.550848977304	7
0	1830	289.882634853904	8
0	1831	289.882634853904	9
0	1832	290.469737735645	8
0	1834	291.050848977304	7
0	1835	291.050848977304	6
0	1839	291.165073578256	7
0	1840	291.165073578256	8
0	1842	291.335595947154	9
0	1843	291.335595947154	10
0	1844	291.969737735645	9
0	1847	292.078110076559	10
0	1848	292.078110076559	11
0	1849	292.550848977304	10
0	1850	292.550848977304	9
0	1854	292.702580356976	10
0	1855	292.702580356976	11
0	1856	293.469737735645	10
0	1858	294.050848977304	9
0	1859	294.050848977304	8
0	1862	294.969737735645	7
0	1865	295.532375944683	8
0	1866	295.532375944683	9
0	1867	295.550848977304	8
0	1868	295.550848977304	7
0	1872	296.268415648719	8
0	1873	296.268415648719	9
0	1874	296.469737735645	8
0	1876	297.050848977304	7
0	1877	297.050848977304	6
0	1881	297.406341242005	7
0	1882	297.406341242005	8
0	1883	297.969737735645	7
0	1886	298.395034693185	8
0	1887	298.395034693185	9
0	1888	298.550848977304	8
0	1889	298.550848977304	7
0	1892	299.469737735645	6
0	1895	299.538759459356	7
0	1896	299.538759459356	8
0	1897	300.050848977304	7
0	1898	300.050848977304	6
0	1902	300.094823881201	7
0	1903	300.094823881201	8
0	1904	300.969737735645	7
0	1906	301.550848977304	6
0	1907	301.550848977304	5
0	1911	302.111266753985	6
0	1912	302.111266753985	7
0	1913	302.469737735645	6
0	1915	303.050848977304	5
0	1916	303.050848977304	4
0	1920	303.219141000143	5
0	1921	303.219141000143	6
0	1922	303.969737735645	5
0	1925	304.176215360628	6
0	1926	304.176215360628	7
0	1927	304.550848977304	6
0	1928	304.550848977304	5
0	1932	305.071521215289	6
0	1933	305.071521215289	7
0	1935	305.449417288278	8
0	1936	305.449417288278	9
0	1937	305.469737735645	8
0	1939	306.050848977304	7
0	1940	306.050848977304	6
0	1943	306.969737735645	5
0	1946	307.191220528373	6
0	1947	307.191220528373	7
0	1948	307.550848977304	6
0	1949	307.550848977304	5
0	1953	308.233694232125	6
0	1954	308.233694232125	7
0	1955	308.469737735645	6
0	1957	309.050848977304	5
0	1958	309.050848977304	4
0	1962	309.128298047991	5
0	1963	309.128298047991	6
0	1964	309.969737735645	5
0	1967	310.003617619833	6
0	1968	310.003617619833	7
0	1970	310.08532734771	8
0	1971	310.08532734771	9
0	1972	310.550848977304	8
0	1973	310.550848977304	7
0	1976	311.469737735645	6
0	1979	311.593650351024	7
0	1980	311.593650351024	8
0	1981	312.050848977304	7
0	1982	312.050848977304	6
0	1986	312.904990950053	7
0	1987	312.904990950053	8
0	1988	312.969737735645	7
0	1990	313.550848977304	6
0	1991	313.550848977304	5
0	1994	314.469737735645	4
0	1997	314.997849344167	5
0	1998	314.997849344167	6
0	1999	315.050848977304	5
0	2000	315.050848977304	4
0	2004	315.293716639818	5
0	2005	315.293716639818	6
0	2006	315.969737735645	5
0	2008	316.550848977304	4
0	2009	316.550848977304	3
0	2013	317.046515714177	4
0	2014	317.046515714177	5
0	2015	317.469737735645	4
0	2018	317.780167981727	5
0	2019	317.780167981727	6
0	2020	318.050848977304	5
0	2021	318.050848977304	4
0	2024	318.969737735645	3
0	2027	319.054649253895	4
0	2028	319.054649253895	5
0	2029	319.550848977304	4
0	2030	319.550848977304	3
0	2034	319.751603092659	4
0	2035	319.751603092659	5
0	2036	320.469737735645	4
0	2038	321.050848977304	3
0	2039	321.050848977304	2
0	2043	321.616452989027	3
0	2044	321.616452989027	4
0	2045	321.969737735645	3
0	2048	322.176966645975	4
0	2049	322.176966645975	5
0	2050	322.550848977304	4
0	2051	322.550848977304	3
0	2055	323.456408667196	4
0	2056	323.456408667196	5
0	2057	323.469737735645	4
0	2060	324.032147502751	5
0	2061	324.032147502751	6
0	2062	324.050848977304	5
0	2063	324.050848977304	4
0	2067	324.295249230157	5
0	2068	324.295249230157	6
0	2069	324.969737735645	5
0	2072	325.002382179441	6
0	2073	325.002382179441	7
0	2074	325.550848977304	6
0	2075	325.550848977304	5
0	2079	326.24032798946	6
0	2080	326.24032798946	7
0	2081	326.469737735645	6
0	2083	327.050848977304	5
0	2084	327.050848977304	4
0	2088	327.855503421385	5
0	2089	327.855503421385	6
0	2090	327.969737735645	5
0	2093	328.32117492527	6
0	2094	328.32117492527	7
0	2095	328.550848977304	6
0	2096	328.550848977304	5
0	2099	329.469737735645	4
0	2102	329.512566279242	5
0	2103	329.512566279242	6
0	2105	329.751032230272	7
0	2106	329.751032230272	8
0	2107	330.050848977304	7
0	2108	330.050848977304	6
0	2111	330.969737735645	5
0	2114	331.098492916195	6
0	2115	331.098492916195	7
0	2116	331.550848977304	6
0	2117	331.550848977304	5
0	2120	332.469737735645	4
0	2123	332.675257242125	5
0	2124	332.675257242125	6
0	2126	332.953807302414	7
0	2127	332.953807302414	8
0	2128	333.050848977304	7
0	2129	333.050848977304	6
0	2133	333.484292322854	7
0	2134	333.484292322854	8
0	2135	333.969737735645	7
0	2138	334.222435871378	8
0	2139	334.222435871378	9
0	2140	334.550848977304	8
0	2141	334.550848977304	7
0	2145	334.893564116702	8
0	2146	334.893564116702	9
0	2147	335.469737735645	8
0	2149	336.050848977304	7
0	2150	336.050848977304	6
0	2153	336.969737735645	5
0	2155	337.550848977304	4
0	2156	337.550848977304	3
0	2160	337.789303483952	4
0	2161	337.789303483952	5
0	2163	338.425498654211	6
0	2164	338.425498654211	7
0	2165	338.469737735645	6
0	2167	339.050848977304	5
0	2168	339.050848977304	4
0	2172	339.713310051441	5
0	2173	339.713310051441	6
0	2174	339.969737735645	5
0	2176	340.550848977304	4
0	2177	340.550848977304	3
0	2181	340.815112565418	4
0	2182	340.815112565418	5
0	2183	341.469737735645	4
0	2185	342.050848977304	3
0	2186	342.050848977304	2
0	2190	342.103454531469	3
0	2191	342.103454531469	4
0	2192	342.969737735645	3
0	2194	343.550848977304	2
0	2195	343.550848977304	1
0	2199	344.350441540115	2
0	2200	344.350441540115	3
0	2201	344.469737735645	2
0	2203	345.050848977304	1
0	2204	345.050848977304	0
0	2208	345.674053465859	1
0	2209	345.674053465859	2
0	2210	345.969737735645	1
0	2213	346.024802815847	2
0	2214	346.024802815847	3
0	2215	346.550848977304	2
0	2216	346.550848977304	1
0	2220	346.872488253726	2
0	2221	346.872488253726	3
0	2222	347.469737735645	2
0	2225	347.552524152258	3
0	2226	347.552524152258	4
0	2227	348.050848977304	3
0	2228	348.050848977304	2
0	2231	348.969737735645	1
0	2234	349.013210949786	2
0	2235	349.013210949786	3
0	2236	349.550848977304	2
0	2237	349.550848977304	1
0	2241	350.211817958638	2
0	2242	350.211817958638	3
0	2243	350.469737735645	2
0	2245	351.050848977304	1
0	2246	351.050848977304	0
0	2250	351.590874240609	1
0	2251	351.590874240609	2
0	2252	351.969737735645	1
0	2254	352.550848977304	0
0	2260	353.14192052511	1
0	2261	353.469737735645	0
0	2274	356.385481091936	1
0	2275	356.560138824614	0
0	2281	357.372153792001	1
0	2282	357.885481091936	0
0	2288	358.495377028237	1
0	2289	358.872153792001	0
0	2292	359.004069871425	1
0	2293	359.004069871425	2
0	2294	359.385481091936	1
0	2296	359.995377028237	0
0	2299	360.22580503216	1
0	2300	360.22580503216	2
0	2301	360.372153792001	1
0	2303	360.885481091936	0
0	2316	362.728325371475	1
0	2318	363.487440200432	2
0	2319	363.487440200432	3
0	2320	363.649565089182	2
0	2321	363.649565089182	1
0	2324	364.228325371475	0
0	2327	365.106012552707	1
0	2328	365.106012552707	2
0	2329	365.149565089182	1
0	2330	365.149565089182	0
0	2337	366.504415725068	1
0	2338	366.649565089182	0
0	2344	367.10507433249	1
0	2345	368.004415725068	0
0	2348	368.032594047686	1
0	2349	368.032594047686	2
0	2350	368.149565089182	1
0	2352	368.60507433249	0
0	2355	369.089473358828	1
0	2356	369.089473358828	2
0	2357	369.504415725068	1
0	2359	369.649565089182	0
0	2365	370.548838924776	1
0	2367	370.972429410464	2
0	2368	370.972429410464	3
0	2369	371.004415725068	2
0	2371	371.149565089182	1
0	2373	372.048838924776	0
0	2383	372.903453087774	1
0	2384	372.903453087774	2
0	2385	373.548838924776	1
0	2388	373.992848837829	2
0	2389	373.992848837829	3
0	2390	374.305778678918	2
0	2391	374.305778678918	1
0	2394	375.048838924776	0
0	2397	375.290047160893	1