version 3
run MMc-17-20221127-11:38:40-7588
attr configname MMc
attr datetime 20221127-11:38:40
attr datetimef 20221127-113840
attr experiment MMc
attr inifile omnetpp.ini
attr iterationvars "$mean=uniform(0.5s, 1.5s), $dev=0.5*(uniform(0.5s, 1.5s)), $time=1.5, $num=3, $0=45732, $1=35463, $2=67563"
attr iterationvarsd mean=uniform(0.5s,_1.5s)/dev=0.5#2a(uniform(0.5s,_1.5s))/time=1.5/num=3/45732/35463/67563
attr iterationvarsf mean=uniform(0.5s,_1.5s),dev=0.5#2a(uniform(0.5s,_1.5s)),time=1.5,num=3,45732,35463,67563-
attr measurement "$mean=uniform(0.5s, 1.5s), $dev=0.5*(uniform(0.5s, 1.5s)), $time=1.5, $num=3, $0=45732, $1=35463, $2=67563"
attr network MMc
attr processid 7588
attr repetition 1
attr replication #1
attr resultdir results
attr runnumber 17
attr seedset 17
itervar dev "0.5*(uniform(0.5s, 1.5s))"
itervar mean "uniform(0.5s, 1.5s)"
itervar num 3
itervar time 1.5
config description "MMc module"
config network MMc
config MMc.source.interArrivalTime "truncnormal(uniform(0.5s, 1.5s), 0.5*(uniform(0.5s, 1.5s)))"
config MMc.mmc.serviceTime 1.5s
config MMc.mmc.c 3
config MMc.mmc.capacity 10000
config record-eventlog false
config **.scalar-recording true
config **.vector-recording true
config repeat 4
config seed-1-mt 45732
config seed-2-mt 35463
config seed-3-mt 67563
config output-vector-file MMc-3-1.5-results/1.vec
config output-scalar-file MMc-3-1.5-results/1.sca

vector 0 MMc.mmc queueLength:vector ETV
attr interpolationmode none
attr recordingmode vector
attr title "queue length"
vector 1 MMc.mmc util:vector ETV
attr interpolationmode none
attr recordingmode vector
attr title resources
0	0	0	0
0	6	11.028643109619	1
0	7	11.5	0
0	13	11.811175414536	1
0	14	12.528643109619	0
0	27	14.443419859448	1
0	28	15.128848837022	0
0	34	15.601028173087	1
0	35	15.943419859448	0
0	41	16.849124457664	1
0	42	17.101028173087	0
0	48	18.33082025825	1
0	49	18.349124457664	0
0	55	18.779947367674	1
0	57	19.703565950951	2
0	58	19.703565950951	3
0	59	19.83082025825	2
0	61	19.849124457664	1
0	63	20.279947367674	0
0	66	21.045107492807	1
0	67	21.045107492807	2
0	69	21.222686402834	3
0	70	21.222686402834	4
0	71	21.33082025825	3
0	73	21.349124457664	2
0	75	21.779947367674	1
0	78	21.899776485113	2
0	79	21.899776485113	3
0	81	22.745250286032	4
0	82	22.745250286032	5
0	83	22.83082025825	4
0	85	22.849124457664	3
0	88	23.200963007781	4
0	89	23.200963007781	5
0	90	23.279947367674	4
0	92	24.33082025825	3
0	94	24.349124457664	2
0	97	24.652088964453	3
0	98	24.652088964453	4
0	99	24.779947367674	3
0	102	25.60977320355	4
0	103	25.60977320355	5
0	104	25.83082025825	4
0	106	25.849124457664	3
0	108	26.279947367674	2
0	111	26.890524606253	3
0	112	26.890524606253	4
0	113	27.33082025825	3
0	115	27.349124457664	2
0	118	27.692154156491	3
0	119	27.692154156491	4
0	120	27.779947367674	3
0	122	28.83082025825	2
0	124	28.849124457664	1
0	127	28.924066111108	2
0	128	28.924066111108	3
0	129	29.279947367674	2
0	131	30.33082025825	1
0	133	30.349124457664	0
0	136	30.49029462778	1
0	137	30.49029462778	2
0	138	30.779947367674	1
0	141	31.637184149009	2
0	142	31.637184149009	3
0	143	31.83082025825	2
0	145	31.849124457664	1
0	147	32.279947367674	0
0	167	37.765843104838	1
0	168	37.793946609641	0
0	181	41.212772912248	1
0	182	41.341499243828	0
0	188	42.506931999021	1
0	189	42.712772912248	0
0	195	43.040972961595	1
0	196	44.006931999021	0
0	209	46.396623527965	1
0	210	47.218494286931	0
0	223	49.480634485282	1
0	224	50.137261271908	0
0	230	50.827937818138	1
0	232	50.919433099952	2
0	233	50.919433099952	3
0	234	50.980634485282	2
0	237	51.27451646194	3
0	238	51.27451646194	4
0	239	51.637261271908	3
0	242	51.982679170568	4
0	243	51.982679170568	5
0	244	52.327937818138	4
0	246	52.480634485282	3
0	249	52.64890792013	4
0	250	52.64890792013	5
0	252	52.927134201271	6
0	253	52.927134201271	7
0	254	53.137261271908	6
0	257	53.534951723956	7
0	258	53.534951723956	8
0	259	53.827937818138	7
0	261	53.980634485282	6
0	263	54.637261271908	5
0	266	55.195291431499	6
0	267	55.195291431499	7
0	268	55.327937818138	6
0	270	55.480634485282	5
0	273	55.935165503176	6
0	274	55.935165503176	7
0	275	56.137261271908	6
0	277	56.827937818138	5
0	279	56.980634485282	4
0	282	57.281679613511	5
0	283	57.281679613511	6
0	284	57.637261271908	5
0	286	58.327937818138	4
0	289	58.471648608545	5
0	290	58.471648608545	6
0	291	58.480634485282	5
0	293	59.137261271908	4
0	296	59.759175843944	5
0	297	59.759175843944	6
0	298	59.827937818138	5
0	300	59.980634485282	4
0	302	60.637261271908	3
0	305	61.218178744617	4
0	306	61.218178744617	5
0	307	61.327937818138	4
0	309	61.480634485282	3
0	312	61.779112230108	4
0	313	61.779112230108	5
0	314	62.137261271908	4
0	316	62.827937818138	3
0	318	62.980634485282	2
0	321	63.196399727911	3
0	322	63.196399727911	4
0	324	63.460716521729	5
0	325	63.460716521729	6
0	326	63.637261271908	5
0	329	64.237125545302	6
0	330	64.237125545302	7
0	331	64.327937818138	6
0	333	64.480634485282	5
0	335	65.137261271908	4
0	338	65.16147562248	5
0	339	65.16147562248	6
0	340	65.827937818138	5
0	342	65.980634485282	4
0	344	66.637261271908	3
0	347	66.829932006191	4
0	348	66.829932006191	5
0	349	67.327937818138	4
0	351	67.480634485282	3
0	354	67.686385939222	4
0	355	67.686385939222	5
0	356	68.137261271908	4
0	358	68.827937818138	3
0	361	68.92902378259	4
0	362	68.92902378259	5
0	363	68.980634485282	4
0	366	69.303333363462	5
0	367	69.303333363462	6
0	368	69.637261271908	5
0	371	70.133480685433	6
0	372	70.133480685433	7
0	373	70.327937818138	6
0	375	70.480634485282	5
0	377	71.137261271908	4
0	379	71.827937818138	3
0	381	71.980634485282	2
0	384	72.357936814469	3
0	385	72.357936814469	4
0	386	72.637261271908	3
0	388	73.327937818138	2
0	390	73.480634485282	1
0	393	73.84077149259	2
0	394	73.84077149259	3
0	395	74.137261271908	2
0	397	74.827937818138	1
0	400	74.89121044181	2
0	401	74.89121044181	3
0	402	74.980634485282	2
0	404	75.637261271908	1
0	407	76.085524480217	2
0	408	76.085524480217	3
0	409	76.327937818138	2
0	412	76.46829343334	3
0	413	76.46829343334	4
0	414	76.480634485282	3
0	416	77.137261271908	2
0	418	77.827937818138	1
0	421	77.83991189057	2
0	422	77.83991189057	3
0	423	77.980634485282	2
0	425	78.637261271908	1
0	427	79.327937818138	0
0	433	79.509526737784	1
0	434	80.137261271908	0
0	447	82.594612605678	1
0	448	83.147023887885	0
0	454	83.161151324487	1
0	456	83.84934142417	2
0	457	83.84934142417	3
0	458	84.094612605678	2
0	460	84.647023887885	1
0	462	84.661151324487	0
0	465	85.08493105275	1
0	466	85.08493105275	2
0	467	85.594612605678	1
0	470	85.891586128676	2
0	471	85.891586128676	3
0	472	86.147023887885	2
0	474	86.161151324487	1
0	477	86.454216983914	2
0	478	86.454216983914	3
0	479	87.094612605678	2
0	481	87.647023887885	1
0	483	87.661151324487	0
0	486	87.679813762055	1
0	487	87.679813762055	2
0	489	87.891145681693	3
0	490	87.891145681693	4
0	492	88.055138658052	5
0	493	88.055138658052	6
0	494	88.594612605678	5
0	496	89.147023887885	4
0	498	89.161151324487	3
0	501	89.621960207519	4
0	502	89.621960207519	5
0	503	90.094612605678	4
0	505	90.647023887885	3
0	507	90.661151324487	2
0	510	90.958218127459	3
0	511	90.958218127459	4
0	512	91.594612605678	3
0	514	92.147023887885	2
0	516	92.161151324487	1
0	519	92.304482399083	2
0	520	92.304482399083	3
0	521	93.094612605678	2
0	524	93.233689235381	3
0	525	93.233689235381	4
0	526	93.647023887885	3
0	528	93.661151324487	2
0	531	94.03623014533	3
0	532	94.03623014533	4
0	533	94.594612605678	3
0	535	95.147023887885	2
0	537	95.161151324487	1
0	540	95.646146257402	2
0	541	95.646146257402	3
0	543	96.006815316238	4
0	544	96.006815316238	5
0	545	96.094612605678	4
0	547	96.647023887885	3
0	549	96.661151324487	2
0	551	97.594612605678	1
0	553	98.147023887885	0
0	556	98.149698190271	1
0	557	98.149698190271	2
0	558	98.161151324487	1
0	560	99.094612605678	0
0	563	99.463415827739	1
0	564	99.463415827739	2
0	565	99.647023887885	1
0	567	99.661151324487	0
0	580	102.754656348827	1
0	581	102.818720746235	0
0	587	102.989836953544	1
0	589	103.740466799107	2
0	590	103.740466799107	3
0	592	104.086817075551	4
0	593	104.086817075551	5
0	594	104.254656348827	4
0	596	104.318720746235	3
0	598	104.489836953544	2
0	601	105.181968223962	3
0	602	105.181968223962	4
0	604	105.651333682717	5
0	605	105.651333682717	6
0	606	105.754656348827	5
0	608	105.818720746235	4
0	610	105.989836953544	3
0	613	106.109217921784	4
0	614	106.109217921784	5
0	615	107.254656348827	4
0	617	107.318720746235	3
0	620	107.40188977332	4
0	621	107.40188977332	5
0	622	107.489836953544	4
0	625	107.93192682725	5
0	626	107.93192682725	6
0	628	108.702790347103	7
0	629	108.702790347103	8
0	630	108.754656348827	7
0	632	108.818720746235	6
0	634	108.989836953544	5
0	637	109.830120876683	6
0	638	109.830120876683	7
0	639	110.254656348827	6
0	641	110.318720746235	5
0	643	110.489836953544	4
0	646	111.717447890982	5
0	647	111.717447890982	6
0	648	111.754656348827	5
0	650	111.818720746235	4
0	652	111.989836953544	3
0	655	112.672805615658	4
0	656	112.672805615658	5
0	657	113.254656348827	4
0	659	113.318720746235	3
0	661	113.489836953544	2
0	664	113.856899947707	3
0	665	113.856899947707	4
0	667	114.648166077679	5
0	668	114.648166077679	6
0	669	114.754656348827	5
0	671	114.818720746235	4
0	673	114.989836953544	3
0	675	116.254656348827	2
0	677	116.318720746235	1
0	680	116.435710995047	2
0	681	116.435710995047	3
0	682	116.489836953544	2
0	684	117.754656348827	1
0	686	117.818720746235	0
0	692	118.204008088516	1
0	694	119.010757746629	2
0	695	119.010757746629	3
0	696	119.254656348827	2
0	698	119.318720746235	1
0	700	119.704008088516	0
0	703	120.413800736481	1
0	704	120.413800736481	2
0	706	120.74459864193	3
0	707	120.74459864193	4
0	708	120.754656348827	3
0	710	120.818720746235	2
0	712	121.204008088516	1
0	715	121.828955713305	2
0	716	121.828955713305	3
0	717	122.254656348827	2
0	719	122.318720746235	1
0	721	122.704008088516	0
0	724	122.908713452166	1
0	725	122.908713452166	2
0	726	123.754656348827	1
0	728	123.818720746235	0
0	734	124.334157935814	1
0	736	124.401929184971	2
0	737	124.401929184971	3
0	739	124.694353522528	4
0	740	124.694353522528	5
0	741	125.254656348827	4
0	743	125.318720746235	3
0	745	125.834157935814	2
0	748	125.843753358306	3
0	749	125.843753358306	4
0	750	126.754656348827	3
0	752	126.818720746235	2
0	755	126.861922360517	3
0	756	126.861922360517	4
0	758	127.325832526023	5
0	759	127.325832526023	6
0	760	127.334157935814	5
0	763	127.893791163121	6
0	764	127.893791163121	7
0	765	128.254656348827	6
0	767	128.318720746235	5
0	769	128.834157935814	4
0	772	129.009593152775	5
0	773	129.009593152775	6
0	774	129.754656348827	5
0	776	129.818720746235	4
0	779	130.069985655029	5
0	780	130.069985655029	6
0	781	130.334157935814	5
0	783	131.254656348827	4
0	785	131.318720746235	3
0	788	131.722963323833	4
0	789	131.722963323833	5
0	790	131.834157935814	4
0	793	132.013471264613	5
0	794	132.013471264613	6
0	795	132.754656348827	5
0	797	132.818720746235	4
0	799	133.334157935814	3
0	802	133.387857786445	4
0	803	133.387857786445	5
0	804	134.254656348827	4
0	806	134.318720746235	3
0	809	134.34367071992	4
0	810	134.34367071992	5
0	811	134.834157935814	4
0	813	135.754656348827	3
0	815	135.818720746235	2
0	818	135.963901228225	3
0	819	135.963901228225	4
0	820	136.334157935814	3
0	822	137.254656348827	2
0	825	137.302847415294	3
0	826	137.302847415294	4
0	827	137.318720746235	3
0	829	137.834157935814	2
0	832	138.281384131547	3
0	833	138.281384131547	4
0	834	138.754656348827	3
0	836	138.818720746235	2
0	839	139.154802199747	3
0	840	139.154802199747	4
0	841	139.334157935814	3
0	843	140.254656348827	2
0	845	140.318720746235	1
0	847	140.834157935814	0
0	850	141.484551063312	1
0	851	141.484551063312	2
0	852	141.754656348827	1
0	854	141.818720746235	0
0	860	142.348862774655	1
0	861	143.254656348827	0
0	871	144.286738030459	1
0	872	144.286738030459	2
0	873	144.754656348827	1
0	875	145.368955835754	0
0	881	145.376223060261	1
0	882	146.254656348827	0
0	885	146.254768796486	1
0	886	146.254768796486	2
0	887	146.868955835754	1
0	889	146.876223060261	0
0	892	147.691451317566	1
0	893	147.691451317566	2
0	894	147.754656348827	1
0	896	148.368955835754	0
0	909	150.691509250161	1
0	910	151.264327959427	0
0	916	151.519368514331	1
0	917	152.191509250161	0
0	923	152.869803876968	1
0	924	153.019368514331	0
0	937	155.560175217867	1
0	938	155.897599308566	0
0	951	157.705304777209	1
0	953	157.753363545169	2
0	954	157.753363545169	3
0	955	158.996218560388	2
0	956	158.996218560388	1
0	959	159.205304777209	0
0	962	159.227157354786	1
0	963	159.227157354786	2
0	964	160.496218560388	1
0	965	160.496218560388	0
0	969	160.70170927052	1
0	970	160.70170927052	2
0	971	160.705304777209	1
0	973	161.996218560388	0
0	986	163.63456317737	1
0	987	163.817207877014	0
0	993	164.422403891506	1
0	995	165.079830888904	2
0	996	165.079830888904	3
0	997	165.13456317737	2
0	999	165.317207877014	1
0	1001	165.922403891506	0
0	1004	165.923269680949	1
0	1005	165.923269680949	2
0	1007	166.423289511008	3
0	1008	166.423289511008	4
0	1010	166.529976053715	5
0	1011	166.529976053715	6
0	1012	166.63456317737	5
0	1014	166.817207877014	4
0	1017	166.842786921857	5
0	1018	166.842786921857	6
0	1020	167.386866915147	7
0	1021	167.386866915147	8
0	1022	167.422403891506	7
0	1025	167.883754236352	8
0	1026	167.883754236352	9
0	1027	168.13456317737	8
0	1029	168.317207877014	7
0	1032	168.840592049286	8
0	1033	168.840592049286	9
0	1034	168.922403891506	8
0	1037	169.124440314028	9
0	1038	169.124440314028	10
0	1039	169.63456317737	9
0	1041	169.817207877014	8
0	1043	170.422403891506	7
0	1045	171.13456317737	6
0	1047	171.317207877014	5
0	1050	171.366969618611	6
0	1051	171.366969618611	7
0	1052	171.922403891506	6
0	1055	172.323674048101	7
0	1056	172.323674048101	8
0	1057	172.63456317737	7
0	1060	172.646335594439	8
0	1061	172.646335594439	9
0	1062	172.817207877014	8
0	1065	173.38271840572	9
0	1066	173.38271840572	10
0	1067	173.422403891506	9
0	1069	174.13456317737	8
0	1071	174.317207877014	7
0	1073	174.922403891506	6
0	1076	175.13452158967	7
0	1077	175.13452158967	8
0	1078	175.63456317737	7
0	1081	175.686659367658	8
0	1082	175.686659367658	9
0	1083	175.817207877014	8
0	1085	176.422403891506	7
0	1088	176.657807647398	8
0	1089	176.657807647398	9
0	1090	177.13456317737	8
0	1092	177.317207877014	7
0	1095	177.634194902793	8
0	1096	177.634194902793	9
0	1097	177.922403891506	8
0	1099	178.63456317737	7
0	1101	178.817207877014	6
0	1104	179.085660182929	7
0	1105	179.085660182929	8
0	1106	179.422403891506	7
0	1108	180.13456317737	6
0	1110	180.317207877014	5
0	1113	180.438521488035	6
0	1114	180.438521488035	7
0	1116	180.864259807099	8
0	1117	180.864259807099	9
0	1118	180.922403891506	8
0	1121	181.431281531743	9
0	1122	181.431281531743	10
0	1123	181.63456317737	9
0	1126	181.70892806376	10
0	1127	181.70892806376	11
0	1128	181.817207877014	10
0	1131	181.852733799395	11
0	1132	181.852733799395	12
0	1133	182.422403891506	11
0	1136	182.883699179466	12
0	1137	182.883699179466	13
0	1138	183.13456317737	12
0	1140	183.317207877014	11
0	1143	183.765932973224	12
0	1144	183.765932973224	13
0	1145	183.922403891506	12
0	1148	184.234184224105	13
0	1149	184.234184224105	14
0	1150	184.63456317737	13
0	1152	184.817207877014	12
0	1155	185.256550314177	13
0	1156	185.256550314177	14
0	1157	185.422403891506	13
0	1159	186.13456317737	12
0	1161	186.317207877014	11
0	1164	186.918574670108	12
0	1165	186.918574670108	13
0	1166	186.922403891506	12
0	1168	187.63456317737	11
0	1170	187.817207877014	10
0	1172	188.422403891506	9
0	1175	188.517100375227	10
0	1176	188.517100375227	11
0	1178	188.619708359997	12
0	1179	188.619708359997	13
0	1180	189.13456317737	12
0	1182	189.317207877014	11
0	1184	189.922403891506	10
0	1187	190.571073087629	11
0	1188	190.571073087629	12
0	1189	190.63456317737	11
0	1191	190.817207877014	10
0	1193	191.422403891506	9
0	1195	192.13456317737	8
0	1197	192.317207877014	7
0	1200	192.334924453718	8
0	1201	192.334924453718	9
0	1203	192.562799986937	10
0	1204	192.562799986937	11
0	1205	192.922403891506	10
0	1208	193.419566947643	11
0	1209	193.419566947643	12
0	1210	193.63456317737	11
0	1212	193.817207877014	10
0	1215	194.119192461832	11
0	1216	194.119192461832	12
0	1217	194.422403891506	11
0	1220	194.644233166111	12
0	1221	194.644233166111	13
0	1222	195.13456317737	12
0	1224	195.317207877014	11
0	1226	195.922403891506	10
0	1229	196.200574893723	11
0	1230	196.200574893723	12
0	1231	196.63456317737	11
0	1234	196.8114825457	12
0	1235	196.8114825457	13
0	1236	196.817207877014	12
0	1238	197.422403891506	11
0	1241	197.638761770108	12
0	1242	197.638761770108	13
0	1243	198.13456317737	12
0	1245	198.317207877014	11
0	1247	198.922403891506	10
0	1250	199.008456099815	11
0	1251	199.008456099815	12
0	1252	199.63456317737	11
0	1254	199.817207877014	10
0	1257	200.049669448527	11
0	1258	200.049669448527	12
0	1259	200.422403891506	11
0	1262	201.082362089166	12
0	1263	201.082362089166	13
0	1264	201.13456317737	12
0	1266	201.317207877014	11
0	1268	201.922403891506	10
0	1270	202.63456317737	9
0	1272	202.817207877014	8
0	1275	202.98728138988	9
0	1276	202.98728138988	10
0	1277	203.422403891506	9
0	1280	203.791194149642	10
0	1281	203.791194149642	11
0	1282	204.13456317737	10
0	1284	204.317207877014	9
0	1286	204.922403891506	8
0	1289	205.068559831986	9
0	1290	205.068559831986	10
0	1291	205.63456317737	9
0	1293	205.817207877014	8
0	1296	205.885360269366	9
0	1297	205.885360269366	10
0	1298	206.422403891506	9
0	1301	206.488231147354	10
0	1302	206.488231147354	11
0	1303	207.13456317737	10
0	1305	207.317207877014	9
0	1307	207.922403891506	8
0	1310	208.40098658237	9
0	1311	208.40098658237	10
0	1312	208.63456317737	9
0	1314	208.817207877014	8
0	1316	209.422403891506	7
0	1319	209.738904586271	8
0	1320	209.738904586271	9
0	1321	210.13456317737	8
0	1323	210.317207877014	7
0	1326	210.635501936418	8
0	1327	210.635501936418	9
0	1328	210.922403891506	8
0	1331	211.090432079514	9
0	1332	211.090432079514	10
0	1334	211.506107206079	11
0	1335	211.506107206079	12
0	1336	211.63456317737	11
0	1338	211.817207877014	10
0	1341	212.258927344437	11
0	1342	212.258927344437	12
0	1343	212.422403891506	11
0	1345	213.13456317737	10
0	1347	213.317207877014	9
0	1350	213.838097636601	10
0	1351	213.838097636601	11
0	1352	213.922403891506	10
0	1354	214.63456317737	9
0	1357	214.808890220204	10
0	1358	214.808890220204	11
0	1359	214.817207877014	10
0	1361	215.422403891506	9
0	1364	215.577830431892	10
0	1365	215.577830431892	11
0	1366	216.13456317737	10
0	1368	216.317207877014	9
0	1371	216.602536600938	10
0	1372	216.602536600938	11
0	1373	216.922403891506	10
0	1375	217.63456317737	9
0	1378	217.675207338886	10
0	1379	217.675207338886	11
0	1380	217.817207877014	10
0	1382	218.422403891506	9
0	1385	219.032365325367	10
0	1386	219.032365325367	11
0	1387	219.13456317737	10
0	1389	219.317207877014	9
0	1391	219.922403891506	8
0	1394	220.142783925521	9
0	1395	220.142783925521	10
0	1396	220.63456317737	9
0	1398	220.817207877014	8
0	1401	221.310365832839	9
0	1402	221.310365832839	10
0	1403	221.422403891506	9
0	1405	222.13456317737	8
0	1407	222.317207877014	7
0	1409	222.922403891506	6
0	1412	223.200262880987	7
0	1413	223.200262880987	8
0	1414	223.63456317737	7
0	1416	223.817207877014	6
0	1418	224.422403891506	5
0	1421	224.471502263028	6
0	1422	224.471502263028	7
0	1424	224.752718742675	8
0	1425	224.752718742675	9
0	1426	225.13456317737	8
0	1428	225.317207877014	7
0	1431	225.772033278742	8
0	1432	225.772033278742	9
0	1433	225.922403891506	8
0	1435	226.63456317737	7
0	1437	226.817207877014	6
0	1440	226.914291229989	7
0	1441	226.914291229989	8
0	1442	227.422403891506	7
0	1444	228.13456317737	6
0	1446	228.317207877014	5
0	1449	228.339523383905	6
0	1450	228.339523383905	7
0	1451	228.922403891506	6
0	1454	229.243225403584	7
0	1455	229.243225403584	8
0	1456	229.63456317737	7
0	1458	229.817207877014	6
0	1461	229.880108875135	7
0	1462	229.880108875135	8
0	1463	230.422403891506	7
0	1466	230.711148676984	8
0	1467	230.711148676984	9
0	1468	231.13456317737	8
0	1470	231.317207877014	7
0	1473	231.383332545094	8
0	1474	231.383332545094	9
0	1475	231.922403891506	8
0	1478	232.344562334783	9
0	1479	232.344562334783	10
0	1480	232.63456317737	9
0	1482	232.817207877014	8
0	1484	233.422403891506	7
0	1487	233.828710032678	8
0	1488	233.828710032678	9
0	1489	234.13456317737	8
0	1491	234.317207877014	7
0	1494	234.536659579179	8
0	1495	234.536659579179	9
0	1496	234.922403891506	8
0	1498	235.63456317737	7
0	1500	235.817207877014	6
0	1502	236.422403891506	5
0	1505	236.477203986057	6
0	1506	236.477203986057	7
0	1507	237.13456317737	6
0	1510	237.279489660589	7
0	1511	237.279489660589	8
0	1512	237.317207877014	7
0	1514	237.922403891506	6
0	1517	238.063644968228	7
0	1518	238.063644968228	8
0	1519	238.63456317737	7
0	1521	238.817207877014	6
0	1523	239.422403891506	5
0	1526	239.565456188774	6
0	1527	239.565456188774	7
0	1528	240.13456317737	6
0	1530	240.317207877014	5
0	1533	240.506472369522	6
0	1534	240.506472369522	7
0	1535	240.922403891506	6
0	1537	241.63456317737	5
0	1539	241.817207877014	4
0	1542	241.930930393554	5
0	1543	241.930930393554	6
0	1544	242.422403891506	5
0	1547	242.999630361307	6
0	1548	242.999630361307	7
0	1549	243.13456317737	6
0	1552	243.276239117039	7
0	1553	243.276239117039	8
0	1554	243.317207877014	7
0	1557	243.812257585748	8
0	1558	243.812257585748	9
0	1559	243.922403891506	8
0	1561	244.63456317737	7
0	1564	244.687635386662	8
0	1565	244.687635386662	9
0	1566	244.817207877014	8
0	1569	244.914583695183	9
0	1570	244.914583695183	10
0	1571	245.422403891506	9
0	1574	245.820375424646	10
0	1575	245.820375424646	11
0	1576	246.13456317737	10
0	1578	246.317207877014	9
0	1580	246.922403891506	8
0	1583	247.211695244057	9
0	1584	247.211695244057	10
0	1585	247.63456317737	9
0	1587	247.817207877014	8
0	1590	248.237363597538	9
0	1591	248.237363597538	10
0	1592	248.422403891506	9
0	1594	249.13456317737	8
0	1596	249.317207877014	7
0	1598	249.922403891506	6
0	1601	249.977676009717	7
0	1602	249.977676009717	8
0	1603	250.63456317737	7
0	1605	250.817207877014	6
0	1608	250.905787959011	7
0	1609	250.905787959011	8
0	1610	251.422403891506	7
0	1613	251.942817555885	8
0	1614	251.942817555885	9
0	1615	252.13456317737	8
0	1617	252.317207877014	7
0	1620	252.423576102286	8
0	1621	252.423576102286	9
0	1622	252.922403891506	8
0	1625	253.503447889677	9
0	1626	253.503447889677	10
0	1627	253.63456317737	9
0	1629	253.817207877014	8
0	1631	254.422403891506	7
0	1634	254.464335069723	8
0	1635	254.464335069723	9
0	1637	254.947988440655	10
0	1638	254.947988440655	11
0	1639	255.13456317737	10
0	1641	255.317207877014	9
0	1643	255.922403891506	8
0	1646	256.13972399472	9
0	1647	256.13972399472	10
0	1648	256.63456317737	9
0	1650	256.817207877014	8
0	1653	256.850908468036	9
0	1654	256.850908468036	10
0	1656	257.376066400445	11
0	1657	257.376066400445	12
0	1658	257.422403891506	11
0	1661	257.533894266288	12
0	1662	257.533894266288	13
0	1663	258.13456317737	12
0	1665	258.317207877014	11
0	1667	258.922403891506	10
0	1670	259.078101817454	11
0	1671	259.078101817454	12
0	1673	259.194222469848	13
0	1674	259.194222469848	14
0	1675	259.63456317737	13
0	1677	259.817207877014	12
0	1679	260.422403891506	11
0	1681	261.13456317737	10
0	1684	261.285502926415	11
0	1685	261.285502926415	12
0	1686	261.317207877014	11
0	1688	261.922403891506	10
0	1691	262.3294583559	11
0	1692	262.3294583559	12
0	1693	262.63456317737	11
0	1695	262.817207877014	10
0	1697	263.422403891506	9
0	1700	263.624941658144	10
0	1701	263.624941658144	11
0	1702	264.13456317737	10
0	1705	264.198615448506	11
0	1706	264.198615448506	12
0	1707	264.317207877014	11
0	1709	264.922403891506	10
0	1712	264.972673476194	11
0	1713	264.972673476194	12
0	1714	265.63456317737	11
0	1717	265.635877974605	12
0	1718	265.635877974605	13
0	1719	265.817207877014	12
0	1721	266.422403891506	11
0	1724	266.972257204193	12
0	1725	266.972257204193	13
0	1726	267.13456317737	12
0	1729	267.232795578435	13
0	1730	267.232795578435	14
0	1731	267.317207877014	13
0	1733	267.922403891506	12
0	1736	268.171531879598	13
0	1737	268.171531879598	14
0	1738	268.63456317737	13
0	1740	268.817207877014	12
0	1742	269.422403891506	11
0	1745	269.565643448031	12
0	1746	269.565643448031	13
0	1747	270.13456317737	12
0	1749	270.317207877014	11
0	1751	270.922403891506	10
0	1754	271.028859996598	11
0	1755	271.028859996598	12
0	1756	271.63456317737	11
0	1758	271.817207877014	10
0	1761	272.018472699124	11
0	1762	272.018472699124	12
0	1764	272.037833674187	13
0	1765	272.037833674187	14
0	1766	272.422403891506	13
0	1769	273.029575729567	14
0	1770	273.029575729567	15
0	1771	273.13456317737	14
0	1773	273.317207877014	13
0	1776	273.78475271345	14
0	1777	273.78475271345	15
0	1778	273.922403891506	14
0	1781	274.208702234003	15
0	1782	274.208702234003	16
0	1783	274.63456317737	15
0	1785	274.817207877014	14
0	1788	275.28352203539	15
0	1789	275.28352203539	16
0	1790	275.422403891506	15
0	1792	276.13456317737	14
0	1795	276.138513942035	15
0	1796	276.138513942035	16
0	1797	276.317207877014	15
0	1799	276.922403891506	14
0	1802	277.056365260392	15
0	1803	277.056365260392	16
0	1805	277.424451347975	17
0	1806	277.424451347975	18
0	1807	277.63456317737	17
0	1809	277.817207877014	16
0	1811	278.422403891506	15
0	1814	278.568731802089	16
0	1815	278.568731802089	17
0	1817	278.965515318499	18
0	1818	278.965515318499	19
0	1819	279.13456317737	18
0	1821	279.317207877014	17
0	1823	279.922403891506	16
0	1826	280.603911918432	17
0	1827	280.603911918432	18
0	1828	280.63456317737	17
0	1830	280.817207877014	16
0	1833	280.9211948639	17
0	1834	280.9211948639	18
0	1835	281.422403891506	17
0	1837	282.13456317737	16
0	1839	282.317207877014	15
0	1842	282.657516297219	16
0	1843	282.657516297219	17
0	1844	282.922403891506	16
0	1847	283.426193709442	17
0	1848	283.426193709442	18
0	1849	283.63456317737	17
0	1851	283.817207877014	16
0	1853	284.422403891506	15
0	1855	285.13456317737	14
0	1858	285.23640626898	15
0	1859	285.23640626898	16
0	1860	285.317207877014	15
0	1863	285.771611109954	16
0	1864	285.771611109954	17
0	1865	285.922403891506	16
0	1868	286.145086571968	17
0	1869	286.145086571968	18
0	1870	286.63456317737	17
0	1872	286.817207877014	16
0	1875	287.029160918895	17
0	1876	287.029160918895	18
0	1877	287.422403891506	17
0	1880	287.824412712557	18
0	1881	287.824412712557	19
0	1882	288.13456317737	18
0	1884	288.317207877014	17
0	1887	288.63375574412	18
0	1888	288.63375574412	19
0	1889	288.922403891506	18
0	1891	289.63456317737	17
0	1893	289.817207877014	16
0	1896	290.379594891451	17
0	1897	290.379594891451	18
0	1898	290.422403891506	17
0	1901	291.0063605006	18
0	1902	291.0063605006	19
0	1904	291.057038832176	20
0	1905	291.057038832176	21
0	1906	291.13456317737	20
0	1908	291.317207877014	19
0	1910	291.922403891506	18
0	1913	292.276594320564	19
0	1914	292.276594320564	20
0	1915	292.63456317737	19
0	1917	292.817207877014	18
0	1920	293.063712282527	19
0	1921	293.063712282527	20
0	1922	293.422403891506	19
0	1925	293.830734705797	20
0	1926	293.830734705797	21
0	1927	294.13456317737	20
0	1929	294.317207877014	19
0	1931	294.922403891506	18
0	1934	295.412512920561	19
0	1935	295.412512920561	20
0	1936	295.63456317737	19
0	1938	295.817207877014	18
0	1941	296.159943207948	19
0	1942	296.159943207948	20
0	1943	296.422403891506	19
0	1945	297.13456317737	18
0	1947	297.317207877014	17
0	1949	297.922403891506	16
0	1952	298.043174467927	17
0	1953	298.043174467927	18
0	1954	298.63456317737	17
0	1956	298.817207877014	16
0	1959	299.123737407784	17
0	1960	299.123737407784	18
0	1961	299.422403891506	17
0	1963	300.13456317737	16
0	1965	300.317207877014	15
0	1968	300.771403712676	16
0	1969	300.771403712676	17
0	1970	300.922403891506	16
0	1973	301.559406168941	17
0	1974	301.559406168941	18
0	1976	301.614173153027	19
0	1977	301.614173153027	20
0	1978	301.63456317737	19
0	1980	301.817207877014	18
0	1982	302.422403891506	17
0	1985	302.557856186596	18
0	1986	302.557856186596	19
0	1987	303.13456317737	18
0	1989	303.317207877014	17
0	1992	303.680288066762	18
0	1993	303.680288066762	19
0	1994	303.922403891506	18
0	1997	304.504045672515	19
0	1998	304.504045672515	20
0	1999	304.63456317737	19
0	2001	304.817207877014	18
0	2003	305.422403891506	17
0	2006	305.624868794685	18
0	2007	305.624868794685	19
0	2008	306.13456317737	18
0	2010	306.317207877014	17
0	2013	306.615390807298	18
0	2014	306.615390807298	19
0	2015	306.922403891506	18
0	2017	307.63456317737	17
0	2019	307.817207877014	16
0	2022	307.944763877146	17
0	2023	307.944763877146	18
0	2024	308.422403891506	17
0	2027	308.548042357546	18
0	2028	308.548042357546	19
0	2029	309.13456317737	18
0	2031	309.317207877014	17
0	2034	309.773053789111	18
0	2035	309.773053789111	19
0	2036	309.922403891506	18
0	2038	310.63456317737	17
0	2040	310.817207877014	16
0	2043	310.967634287401	17
0	2044	310.967634287401	18
0	2045	311.422403891506	17
0	2048	312.105797962452	18
0	2049	312.105797962452	19
0	2050	312.13456317737	18
0	2052	312.317207877014	17
0	2054	312.922403891506	16
0	2056	313.63456317737	15
0	2059	313.757057484671	16
0	2060	313.757057484671	17
0	2061	313.817207877014	16
0	2063	314.422403891506	15
0	2066	314.765891022086	16
0	2067	314.765891022086	17
0	2068	315.13456317737	16
0	2070	315.317207877014	15
0	2072	315.922403891506	14
0	2075	316.228024503961	15
0	2076	316.228024503961	16
0	2077	316.63456317737	15
0	2079	316.817207877014	14
0	2081	317.422403891506	13
0	2084	317.432153270938	14
0	2085	317.432153270938	15
0	2086	318.13456317737	14
0	2088	318.317207877014	13
0	2090	318.922403891506	12
0	2093	319.242911060429	13
0	2094	319.242911060429	14
0	2095	319.63456317737	13
0	2097	319.817207877014	12
0	2099	320.422403891506	11
0	2102	320.924357960735	12
0	2103	320.924357960735	13
0	2104	321.13456317737	12
0	2106	321.317207877014	11
0	2108	321.922403891506	10
0	2110	322.63456317737	9
0	2112	322.817207877014	8
0	2115	323.087078835278	9
0	2116	323.087078835278	10
0	2117	323.422403891506	9
0	2119	324.13456317737	8
0	2121	324.317207877014	7
0	2123	324.922403891506	6
0	2126	324.949146574723	7
0	2127	324.949146574723	8
0	2128	325.63456317737	7
0	2130	325.817207877014	6
0	2133	325.91896034779	7
0	2134	325.91896034779	8
0	2135	326.422403891506	7
0	2138	327.001946271414	8
0	2139	327.001946271414	9
0	2140	327.13456317737	8
0	2142	327.317207877014	7