version 3
run MMc-18-20221127-11:38:40-7588
attr configname MMc
attr datetime 20221127-11:38:40
attr datetimef 20221127-113840
attr experiment MMc
attr inifile omnetpp.ini
attr iterationvars "$mean=uniform(0.5s, 1.5s), $dev=0.5*(uniform(0.5s, 1.5s)), $time=1.5, $num=3, $0=47853, $1=24674, $2=96433"
attr iterationvarsd mean=uniform(0.5s,_1.5s)/dev=0.5#2a(uniform(0.5s,_1.5s))/time=1.5/num=3/47853/24674/96433
attr iterationvarsf mean=uniform(0.5s,_1.5s),dev=0.5#2a(uniform(0.5s,_1.5s)),time=1.5,num=3,47853,24674,96433-
attr measurement "$mean=uniform(0.5s, 1.5s), $dev=0.5*(uniform(0.5s, 1.5s)), $time=1.5, $num=3, $0=47853, $1=24674, $2=96433"
attr network MMc
attr processid 7588
attr repetition 2
attr replication #2
attr resultdir results
attr runnumber 18
attr seedset 18
itervar dev "0.5*(uniform(0.5s, 1.5s))"
itervar mean "uniform(0.5s, 1.5s)"
itervar num 3
itervar time 1.5
config description "MMc module"
config network MMc
config MMc.source.interArrivalTime "truncnormal(uniform(0.5s, 1.5s), 0.5*(uniform(0.5s, 1.5s)))"
config MMc.mmc.serviceTime 1.5s
config MMc.mmc.c 3
config MMc.mmc.capacity 10000
config record-eventlog false
config **.scalar-recording true
config **.vector-recording true
config repeat 4
config seed-1-mt 47853
config seed-2-mt 24674
config seed-3-mt 96433
config output-vector-file MMc-3-1.5-results/2.vec
config output-scalar-file MMc-3-1.5-results/2.sca

vector 0 MMc.mmc queueLength:vector ETV
attr interpolationmode none
attr recordingmode vector
attr title "queue length"
vector 1 MMc.mmc util:vector ETV
attr interpolationmode none
attr recordingmode vector
attr title resources
0	0	0	0
0	6	10.838770919231	1
0	7	11.5	0
0	27	15.727507835193	1
0	29	15.788454659111	2
0	30	15.788454659111	3
0	31	15.852125199816	2
0	32	15.852125199816	1
0	36	16.421690456699	2
0	37	16.421690456699	3
0	39	16.816136518182	4
0	40	16.816136518182	5
0	41	17.227507835193	4
0	43	17.352125199816	3
0	44	17.352125199816	2
0	48	17.495723435973	3
0	49	17.495723435973	4
0	51	18.566118908928	5
0	52	18.566118908928	6
0	53	18.727507835193	5
0	55	18.852125199816	4
0	56	18.852125199816	3
0	59	20.227507835193	2
0	61	20.352125199816	1
0	62	20.352125199816	0
0	66	20.402129375421	1
0	67	20.402129375421	2
0	68	21.727507835193	1
0	70	21.852125199816	0
0	76	22.09039955341	1
0	77	23.227507835193	0
0	83	23.36656366731	1
0	84	23.59039955341	0
0	97	26.269200056195	1
0	98	26.833270826369	0
0	104	27.642764566227	1
0	105	27.769200056195	0
0	111	28.726046662877	1
0	112	29.142764566227	0
0	118	29.627120870736	1
0	119	30.226046662877	0
0	132	32.644727252998	1
0	133	32.786035976102	0
0	139	33.769186710622	1
0	141	34.133558667369	2
0	142	34.133558667369	3
0	143	34.144727252998	2
0	145	34.286035976102	1
0	148	34.591743594156	2
0	149	34.591743594156	3
0	150	35.269186710622	2
0	152	35.644727252998	1
0	155	35.784618862884	2
0	156	35.784618862884	3
0	157	35.786035976102	2
0	160	36.334242519173	3
0	161	36.334242519173	4
0	162	36.769186710622	3
0	164	37.144727252998	2
0	166	37.286035976102	1
0	169	37.351242587353	2
0	170	37.351242587353	3
0	172	37.657232804192	4
0	173	37.657232804192	5
0	174	38.269186710622	4
0	176	38.644727252998	3
0	178	38.786035976102	2
0	181	39.146606394929	3
0	182	39.146606394929	4
0	183	39.769186710622	3
0	185	40.144727252998	2
0	187	40.286035976102	1
0	190	40.514175856129	2
0	191	40.514175856129	3
0	192	41.269186710622	2
0	195	41.342709934367	3
0	196	41.342709934367	4
0	198	41.630917315647	5
0	199	41.630917315647	6
0	200	41.644727252998	5
0	202	41.786035976102	4
0	204	42.769186710622	3
0	206	43.144727252998	2
0	208	43.286035976102	1
0	211	43.340563227625	2
0	212	43.340563227625	3
0	213	44.269186710622	2
0	215	44.644727252998	1
0	217	44.786035976102	0
0	220	45.154577148166	1
0	221	45.154577148166	2
0	222	45.769186710622	1
0	225	45.988621293119	2
0	226	45.988621293119	3
0	227	46.144727252998	2
0	229	46.286035976102	1
0	231	47.269186710622	0
0	244	49.212714739234	1
0	245	49.681724263481	0
0	251	50.424887901928	1
0	252	50.712714739234	0
0	255	51.106105886744	1
0	256	51.106105886744	2
0	257	51.181724263481	1
0	259	51.924887901928	0
0	262	52.11183636969	1
0	263	52.11183636969	2
0	264	52.212714739234	1
0	266	52.681724263481	0
0	269	53.410515832777	1
0	270	53.410515832777	2
0	271	53.424887901928	1
0	273	53.712714739234	0
0	276	53.991534502356	1
0	277	53.991534502356	2
0	278	54.181724263481	1
0	280	54.924887901928	0
0	286	55.24894373657	1
0	288	55.677400995273	2
0	289	55.677400995273	3
0	290	55.681724263481	2
0	292	56.424887901928	1
0	295	56.484311191514	2
0	296	56.484311191514	3
0	297	56.74894373657	2
0	299	57.181724263481	1
0	302	57.466500906579	2
0	303	57.466500906579	3
0	304	57.924887901928	2
0	306	58.24894373657	1
0	309	58.445514931206	2
0	310	58.445514931206	3
0	311	58.681724263481	2
0	314	58.92251888531	3
0	315	58.92251888531	4
0	316	59.424887901928	3
0	318	59.74894373657	2
0	321	59.99864988524	3
0	322	59.99864988524	4
0	323	60.181724263481	3
0	326	60.862707992374	4
0	327	60.862707992374	5
0	328	60.924887901928	4
0	330	61.24894373657	3
0	332	61.681724263481	2
0	334	62.424887901928	1
0	337	62.428030830884	2
0	338	62.428030830884	3
0	339	62.74894373657	2
0	341	63.181724263481	1
0	343	63.924887901928	0
0	346	64.147507821209	1
0	347	64.147507821209	2
0	348	64.24894373657	1
0	350	64.681724263481	0
0	356	65.488390049057	1
0	357	65.74894373657	0
0	377	70.140685331035	1
0	378	70.709169064971	0
0	384	71.12045827772	1
0	386	71.151862790009	2
0	387	71.151862790009	3
0	388	71.640685331035	2
0	391	71.818280580856	3
0	392	71.818280580856	4
0	393	72.209169064971	3
0	395	72.62045827772	2
0	398	72.969535656006	3
0	399	72.969535656006	4
0	400	73.140685331035	3
0	402	73.709169064971	2
0	405	73.960843506568	3
0	406	73.960843506568	4
0	407	74.12045827772	3
0	409	74.640685331035	2
0	411	75.209169064971	1
0	414	75.446347961078	2
0	415	75.446347961078	3
0	416	75.62045827772	2
0	418	76.140685331035	1
0	421	76.569174892217	2
0	422	76.569174892217	3
0	423	76.709169064971	2
0	425	77.12045827772	1
0	428	77.254249031746	2
0	429	77.254249031746	3
0	430	77.640685331035	2
0	432	78.209169064971	1
0	434	78.62045827772	0
0	437	78.756334101308	1
0	438	78.756334101308	2
0	439	79.140685331035	1
0	441	79.709169064971	0
0	454	82.008652858736	1
0	455	82.251270445963	0
0	461	82.702593932581	1
0	462	83.508652858736	0
0	465	83.677281339764	1
0	466	83.677281339764	2
0	467	83.751270445963	1
0	469	84.202593932581	0
0	472	84.950242589553	1
0	473	84.950242589553	2
0	474	85.008652858736	1
0	476	85.251270445963	0
0	482	86.306343822551	1
0	483	86.508652858736	0
0	489	87.190282135574	1
0	490	87.806343822551	0
0	510	91.587478536498	1
0	511	92.695452441077	0
0	524	94.607575671903	1
0	525	94.875587662707	0
0	538	96.828993768	1
0	540	97.25512619661	2
0	541	97.25512619661	3
0	543	97.651759320973	4
0	544	97.651759320973	5
0	545	97.754141058069	4
0	546	97.754141058069	3
0	550	97.909997175691	4
0	551	97.909997175691	5
0	552	98.328993768	4
0	555	99.065917096818	5
0	556	99.065917096818	6
0	557	99.254141058069	5
0	558	99.254141058069	4
0	561	99.828993768	3
0	563	100.754141058069	2
0	564	100.754141058069	1
0	567	101.328993768	0
0	570	101.763771020899	1
0	571	101.763771020899	2
0	572	102.254141058069	1
0	573	102.254141058069	0
0	577	102.503358496474	1
0	578	102.503358496474	2
0	579	102.828993768	1
0	582	103.342052376748	2
0	583	103.342052376748	3
0	584	103.754141058069	2
0	585	103.754141058069	1
0	588	104.328993768	0
0	591	104.583682639691	1
0	592	104.583682639691	2
0	593	105.254141058069	1
0	594	105.254141058069	0
0	601	105.892883471061	1
0	602	106.754141058069	0
0	608	107.388087785707	1
0	609	107.392883471061	0
0	615	108.521538468863	1
0	616	108.888087785707	0
0	622	109.542415183636	1
0	623	110.021538468863	0
0	629	110.99657661804	1
0	630	111.042415183636	0
0	636	112.207470255659	1
0	637	112.49657661804	0
0	643	113.109286510291	1
0	644	113.707470255659	0
0	647	113.949768660896	1
0	648	113.949768660896	2
0	649	113.99657661804	1
0	651	114.609286510291	0
0	664	116.593447340038	1
0	665	117.358251340263	0
0	671	117.668195054108	1
0	672	118.093447340038	0
0	675	118.639975333141	1
0	676	118.639975333141	2
0	677	118.858251340263	1
0	679	119.168195054108	0
0	685	119.735663793794	1
0	686	120.358251340263	0
0	692	121.195538065897	1
0	693	121.235663793794	0
0	706	123.955828049096	1
0	707	124.418558968336	0
0	720	126.774102510664	1
0	721	127.002905828264	0
0	734	129.069071493431	1
0	735	129.99564421729	0
0	741	130.04973147422	1
0	742	130.569071493431	0
0	755	132.519299911131	1
0	756	133.41365966486	0
0	762	134.011629567847	1
0	763	134.019299911131	0
0	766	134.731985866631	1
0	767	134.731985866631	2
0	768	134.91365966486	1
0	770	135.511629567847	0
0	776	135.759132125872	1
0	778	136.390567448371	2
0	779	136.390567448371	3
0	780	136.41365966486	2
0	783	136.46134529602	3
0	784	136.46134529602	4
0	785	137.011629567847	3
0	787	137.259132125872	2
0	790	137.36278667613	3
0	791	137.36278667613	4
0	792	137.91365966486	3
0	795	138.168547185606	4
0	796	138.168547185606	5
0	797	138.511629567847	4
0	799	138.759132125872	3
0	801	139.41365966486	2
0	804	139.985046081137	3
0	805	139.985046081137	4
0	806	140.011629567847	3
0	808	140.259132125872	2
0	810	140.91365966486	1
0	813	141.090550703939	2
0	814	141.090550703939	3
0	816	141.350130669019	4
0	817	141.350130669019	5
0	818	141.511629567847	4
0	821	141.61154331728	5
0	822	141.61154331728	6
0	823	141.759132125872	5
0	826	142.107328633702	6
0	827	142.107328633702	7
0	828	142.41365966486	6
0	830	143.011629567847	5
0	833	143.217923366904	6
0	834	143.217923366904	7
0	835	143.259132125872	6
0	837	143.91365966486	5
0	840	144.317347166234	6
0	841	144.317347166234	7
0	842	144.511629567847	6
0	845	144.742806538309	7
0	846	144.742806538309	8
0	847	144.759132125872	7
0	849	145.41365966486	6
0	851	146.011629567847	5
0	853	146.259132125872	4
0	856	146.587124732604	5
0	857	146.587124732604	6
0	858	146.91365966486	5
0	861	147.040391357607	6
0	862	147.040391357607	7
0	863	147.511629567847	6
0	865	147.759132125872	5
0	867	148.41365966486	4
0	869	149.011629567847	3
0	872	149.017753648351	4
0	873	149.017753648351	5
0	874	149.259132125872	4
0	876	149.91365966486	3
0	879	150.224202629213	4
0	880	150.224202629213	5
0	881	150.511629567847	4
0	883	150.759132125872	3
0	886	150.805348954896	4
0	887	150.805348954896	5
0	888	151.41365966486	4
0	890	152.011629567847	3
0	892	152.259132125872	2
0	895	152.433335663468	3
0	896	152.433335663468	4
0	897	152.91365966486	3
0	900	153.119431923123	4
0	901	153.119431923123	5
0	903	153.479669555538	6
0	904	153.479669555538	7
0	905	153.511629567847	6
0	907	153.759132125872	5
0	909	154.41365966486	4
0	911	155.011629567847	3
0	914	155.208362336633	4
0	915	155.208362336633	5
0	916	155.259132125872	4
0	919	155.375781352962	5
0	920	155.375781352962	6
0	921	155.91365966486	5
0	924	155.99175756351	6
0	925	155.99175756351	7
0	926	156.511629567847	6
0	929	156.621549488047	7
0	930	156.621549488047	8
0	931	156.759132125872	7
0	933	157.41365966486	6
0	935	158.011629567847	5
0	938	158.196667942043	6
0	939	158.196667942043	7
0	940	158.259132125872	6
0	942	158.91365966486	5
0	944	159.511629567847	4
0	946	159.759132125872	3
0	949	159.992502247732	4
0	950	159.992502247732	5
0	951	160.41365966486	4
0	953	161.011629567847	3
0	956	161.122636157524	4
0	957	161.122636157524	5
0	958	161.259132125872	4
0	960	161.91365966486	3
0	962	162.511629567847	2
0	965	162.538245436164	3
0	966	162.538245436164	4
0	967	162.759132125872	3
0	969	163.41365966486	2
0	971	164.011629567847	1
0	974	164.125317272924	2
0	975	164.125317272924	3
0	976	164.259132125872	2
0	978	164.91365966486	1
0	981	165.125423430965	2
0	982	165.125423430965	3
0	983	165.511629567847	2
0	985	165.759132125872	1
0	988	165.831563126704	2
0	989	165.831563126704	3
0	990	166.41365966486	2
0	993	166.596911923459	3
0	994	166.596911923459	4
0	995	167.011629567847	3
0	998	167.051736705075	4
0	999	167.051736705075	5
0	1000	167.259132125872	4
0	1002	167.91365966486	3
0	1005	168.186138661431	4
0	1006	168.186138661431	5
0	1007	168.511629567847	4
0	1009	168.759132125872	3
0	1012	169.272310759031	4
0	1013	169.272310759031	5
0	1014	169.41365966486	4
0	1016	170.011629567847	3
0	1019	170.242284785825	4
0	1020	170.242284785825	5
0	1021	170.259132125872	4
0	1024	170.679248915744	5
0	1025	170.679248915744	6
0	1026	170.91365966486	5
0	1029	171.343047855308	6
0	1030	171.343047855308	7
0	1031	171.511629567847	6
0	1033	171.759132125872	5
0	1035	172.41365966486	4
0	1037	173.011629567847	3
0	1039	173.259132125872	2
0	1042	173.312444212924	3
0	1043	173.312444212924	4
0	1044	173.91365966486	3
0	1047	174.248020401048	4
0	1048	174.248020401048	5
0	1049	174.511629567847	4
0	1051	174.759132125872	3
0	1053	175.41365966486	2
0	1056	175.522710978808	3
0	1057	175.522710978808	4
0	1058	176.011629567847	3
0	1060	176.259132125872	2
0	1063	176.39798812392	3
0	1064	176.39798812392	4
0	1065	176.91365966486	3
0	1067	177.511629567847	2
0	1069	177.759132125872	1
0	1072	178.318199056715	2
0	1073	178.318199056715	3
0	1074	178.41365966486	2
0	1077	178.675639947965	3
0	1078	178.675639947965	4
0	1079	179.011629567847	3
0	1081	179.259132125872	2
0	1083	179.91365966486	1
0	1086	180.14725969657	2
0	1087	180.14725969657	3
0	1088	180.511629567847	2
0	1090	180.759132125872	1
0	1092	181.41365966486	0
0	1095	181.82435434241	1
0	1096	181.82435434241	2
0	1097	182.011629567847	1
0	1100	182.09021772148	2
0	1101	182.09021772148	3
0	1102	182.259132125872	2
0	1104	182.91365966486	1
0	1107	183.001608234911	2
0	1108	183.001608234911	3
0	1110	183.324021509133	4
0	1111	183.324021509133	5
0	1112	183.511629567847	4
0	1114	183.759132125872	3
0	1117	184.067193196369	4
0	1118	184.067193196369	5
0	1119	184.41365966486	4
0	1122	184.681749287639	5
0	1123	184.681749287639	6
0	1124	185.011629567847	5
0	1126	185.259132125872	4
0	1128	185.91365966486	3
0	1131	185.944184533654	4
0	1132	185.944184533654	5
0	1133	186.511629567847	4
0	1135	186.759132125872	3
0	1138	187.266929670799	4
0	1139	187.266929670799	5
0	1140	187.41365966486	4
0	1142	188.011629567847	3
0	1145	188.233042379109	4
0	1146	188.233042379109	5
0	1147	188.259132125872	4
0	1150	188.791447794121	5
0	1151	188.791447794121	6
0	1152	188.91365966486	5
0	1154	189.511629567847	4
0	1156	189.759132125872	3
0	1158	190.41365966486	2
0	1160	191.011629567847	1
0	1162	191.259132125872	0
0	1165	191.508252708636	1
0	1166	191.508252708636	2
0	1167	191.91365966486	1
0	1170	192.006881987154	2
0	1171	192.006881987154	3
0	1172	192.511629567847	2
0	1175	192.540912044938	3
0	1176	192.540912044938	4
0	1177	192.759132125872	3
0	1180	192.87987269067	4
0	1181	192.87987269067	5
0	1182	193.41365966486	4
0	1184	194.011629567847	3
0	1186	194.259132125872	2
0	1189	194.264487015392	3
0	1190	194.264487015392	4
0	1192	194.401137397338	5
0	1193	194.401137397338	6
0	1195	194.56070150478	7
0	1196	194.56070150478	8
0	1197	194.91365966486	7
0	1200	195.328569847463	8
0	1201	195.328569847463	9
0	1202	195.511629567847	8
0	1204	195.759132125872	7
0	1206	196.41365966486	6
0	1209	196.795983227628	7
0	1210	196.795983227628	8
0	1211	197.011629567847	7
0	1213	197.259132125872	6
0	1215	197.91365966486	5
0	1217	198.511629567847	4
0	1220	198.748052510892	5
0	1221	198.748052510892	6
0	1222	198.759132125872	5
0	1224	199.41365966486	4
0	1226	200.011629567847	3
0	1229	200.116781001349	4
0	1230	200.116781001349	5
0	1231	200.259132125872	4
0	1233	200.91365966486	3
0	1236	201.219461685486	4
0	1237	201.219461685486	5
0	1238	201.511629567847	4
0	1241	201.656540511685	5
0	1242	201.656540511685	6
0	1243	201.759132125872	5
0	1245	202.41365966486	4
0	1248	202.989536476055	5
0	1249	202.989536476055	6
0	1250	203.011629567847	5
0	1252	203.259132125872	4
0	1254	203.91365966486	3
0	1257	204.084066570062	4
0	1258	204.084066570062	5
0	1259	204.511629567847	4
0	1261	204.759132125872	3
0	1264	205.085268449415	4
0	1265	205.085268449415	5
0	1266	205.41365966486	4
0	1268	206.011629567847	3
0	1271	206.218717521537	4
0	1272	206.218717521537	5
0	1273	206.259132125872	4
0	1275	206.91365966486	3
0	1278	207.409823202491	4
0	1279	207.409823202491	5
0	1280	207.511629567847	4
0	1282	207.759132125872	3
0	1285	208.160641655736	4
0	1286	208.160641655736	5
0	1287	208.41365966486	4
0	1289	209.011629567847	3
0	1291	209.259132125872	2
0	1294	209.689549322056	3
0	1295	209.689549322056	4
0	1296	209.91365966486	3
0	1299	210.201448257345	4
0	1300	210.201448257345	5
0	1301	210.511629567847	4
0	1303	210.759132125872	3
0	1306	211.00614973942	4
0	1307	211.00614973942	5
0	1308	211.41365966486	4
0	1311	211.93965891196	5
0	1312	211.93965891196	6
0	1313	212.011629567847	5
0	1315	212.259132125872	4
0	1318	212.705574497704	5
0	1319	212.705574497704	6
0	1320	212.91365966486	5
0	1322	213.511629567847	4
0	1325	213.558351611432	5
0	1326	213.558351611432	6
0	1327	213.759132125872	5
0	1329	214.41365966486	4
0	1331	215.011629567847	3
0	1334	215.0141082906	4
0	1335	215.0141082906	5
0	1336	215.259132125872	4
0	1339	215.620570884434	5
0	1340	215.620570884434	6
0	1341	215.91365966486	5
0	1344	216.486977123449	6
0	1345	216.486977123449	7
0	1346	216.511629567847	6
0	1349	216.703792403278	7
0	1350	216.703792403278	8
0	1351	216.759132125872	7
0	1353	217.41365966486	6
0	1355	218.011629567847	5
0	1358	218.068261090047	6
0	1359	218.068261090047	7
0	1360	218.259132125872	6
0	1363	218.539569392545	7
0	1364	218.539569392545	8
0	1365	218.91365966486	7
0	1368	219.062339820653	8
0	1369	219.062339820653	9
0	1371	219.338067177073	10
0	1372	219.338067177073	11
0	1373	219.511629567847	10
0	1375	219.759132125872	9
0	1378	219.794146704666	10
0	1379	219.794146704666	11
0	1380	220.41365966486	10
0	1382	221.011629567847	9
0	1385	221.233598452899	10
0	1386	221.233598452899	11
0	1387	221.259132125872	10
0	1389	221.91365966486	9
0	1392	221.998980739442	10
0	1393	221.998980739442	11
0	1395	222.430277977866	12
0	1396	222.430277977866	13
0	1397	222.511629567847	12
0	1399	222.759132125872	11
0	1402	223.085451590315	12
0	1403	223.085451590315	13
0	1404	223.41365966486	12
0	1407	223.961557085217	13
0	1408	223.961557085217	14
0	1409	224.011629567847	13
0	1411	224.259132125872	12
0	1413	224.91365966486	11
0	1415	225.511629567847	10
0	1417	225.759132125872	9
0	1420	225.806392398948	10
0	1421	225.806392398948	11
0	1422	226.41365966486	10
0	1425	226.675391621084	11
0	1426	226.675391621084	12
0	1427	227.011629567847	11
0	1429	227.259132125872	10
0	1431	227.91365966486	9
0	1434	228.200313314221	10
0	1435	228.200313314221	11
0	1437	228.315873034804	12
0	1438	228.315873034804	13
0	1439	228.511629567847	12
0	1441	228.759132125872	11
0	1443	229.41365966486	10
0	1446	229.751160602719	11
0	1447	229.751160602719	12
0	1448	230.011629567847	11
0	1450	230.259132125872	10
0	1452	230.91365966486	9
0	1455	231.234410937033	10
0	1456	231.234410937033	11
0	1457	231.511629567847	10
0	1459	231.759132125872	9
0	1462	231.99928545523	10
0	1463	231.99928545523	11
0	1464	232.41365966486	10
0	1466	233.011629567847	9
0	1469	233.169849333248	10
0	1470	233.169849333248	11
0	1471	233.259132125872	10
0	1473	233.91365966486	9
0	1475	234.511629567847	8
0	1478	234.634015163684	9
0	1479	234.634015163684	10
0	1480	234.759132125872	9
0	1482	235.41365966486	8
0	1485	235.572288098894	9
0	1486	235.572288098894	10
0	1487	236.011629567847	9
0	1489	236.259132125872	8
0	1491	236.91365966486	7
0	1494	237.170465664754	8
0	1495	237.170465664754	9
0	1496	237.511629567847	8
0	1498	237.759132125872	7
0	1501	238.008002965003	8
0	1502	238.008002965003	9
0	1503	238.41365966486	8
0	1505	239.011629567847	7
0	1508	239.177952437631	8
0	1509	239.177952437631	9
0	1510	239.259132125872	8
0	1513	239.735535073477	9
0	1514	239.735535073477	10
0	1515	239.91365966486	9
0	1517	240.511629567847	8
0	1519	240.759132125872	7
0	1522	240.900446358118	8
0	1523	240.900446358118	9
0	1524	241.41365966486	8
0	1526	242.011629567847	7
0	1528	242.259132125872	6
0	1531	242.359579577904	7
0	1532	242.359579577904	8
0	1533	242.91365966486	7
0	1536	243.174332383442	8
0	1537	243.174332383442	9
0	1538	243.511629567847	8
0	1540	243.759132125872	7
0	1542	244.41365966486	6
0	1545	244.494189886569	7
0	1546	244.494189886569	8
0	1548	244.853069578089	9
0	1549	244.853069578089	10
0	1550	245.011629567847	9
0	1552	245.259132125872	8
0	1554	245.91365966486	7
0	1556	246.511629567847	6
0	1558	246.759132125872	5
0	1561	246.954471054233	6
0	1562	246.954471054233	7
0	1564	247.328316555047	8
0	1565	247.328316555047	9
0	1566	247.41365966486	8
0	1569	247.426484588004	9
0	1570	247.426484588004	10
0	1571	248.011629567847	9
0	1574	248.166387799331	10
0	1575	248.166387799331	11
0	1576	248.259132125872	10
0	1579	248.635748108859	11
0	1580	248.635748108859	12
0	1581	248.91365966486	11
0	1584	249.092270010073	12
0	1585	249.092270010073	13
0	1586	249.511629567847	12
0	1589	249.715120539592	13
0	1590	249.715120539592	14
0	1591	249.759132125872	13
0	1594	250.182648192513	14
0	1595	250.182648192513	15
0	1596	250.41365966486	14
0	1598	251.011629567847	13
0	1601	251.01777766	14
0	1602	251.01777766	15
0	1603	251.259132125872	14
0	1605	251.91365966486	13
0	1607	252.511629567847	12
0	1610	252.758474908865	13
0	1611	252.758474908865	14
0	1612	252.759132125872	13
0	1614	253.41365966486	12
0	1617	253.919582090606	13
0	1618	253.919582090606	14
0	1619	254.011629567847	13
0	1621	254.259132125872	12
0	1624	254.674401073219	13
0	1625	254.674401073219	14
0	1626	254.91365966486	13
0	1629	255.25229359252	14
0	1630	255.25229359252	15
0	1631	255.511629567847	14
0	1633	255.759132125872	13
0	1636	256.218604745032	14
0	1637	256.218604745032	15
0	1638	256.41365966486	14
0	1640	257.011629567847	13
0	1642	257.259132125872	12
0	1645	257.790397451697	13
0	1646	257.790397451697	14
0	1647	257.91365966486	13
0	1649	258.511629567847	12
0	1651	258.759132125872	11
0	1654	259.235541407685	12
0	1655	259.235541407685	13
0	1656	259.41365966486	12
0	1658	260.011629567847	11
0	1661	260.118269096088	12
0	1662	260.118269096088	13
0	1663	260.259132125872	12
0	1665	260.91365966486	11
0	1668	261.23232415654	12
0	1669	261.23232415654	13
0	1670	261.511629567847	12
0	1672	261.759132125872	11
0	1675	262.407547882959	12
0	1676	262.407547882959	13
0	1677	262.41365966486	12
0	1679	263.011629567847	11
0	1681	263.259132125872	10
0	1684	263.4476726715	11
0	1685	263.4476726715	12
0	1687	263.489870667773	13
0	1688	263.489870667773	14
0	1689	263.91365966486	13
0	1692	264.419499663046	14
0	1693	264.419499663046	15
0	1694	264.511629567847	14
0	1696	264.759132125872	13
0	1699	264.940137654621	14
0	1700	264.940137654621	15
0	1701	265.41365966486	14
0	1704	265.575712658148	15
0	1705	265.575712658148	16
0	1706	266.011629567847	15
0	1709	266.217139816721	16
0	1710	266.217139816721	17
0	1711	266.259132125872	16
0	1713	266.91365966486	15
0	1716	267.448580473378	16
0	1717	267.448580473378	17
0	1718	267.511629567847	16
0	1720	267.759132125872	15
0	1722	268.41365966486	14
0	1724	269.011629567847	13
0	1727	269.06294515982	14
0	1728	269.06294515982	15
0	1729	269.259132125872	14
0	1731	269.91365966486	13
0	1733	270.511629567847	12
0	1736	270.626267487963	13
0	1737	270.626267487963	14
0	1738	270.759132125872	13
0	1741	271.063508451888	14
0	1742	271.063508451888	15
0	1743	271.41365966486	14
0	1745	272.011629567847	13
0	1747	272.259132125872	12
0	1750	272.27027324889	13
0	1751	272.27027324889	14
0	1752	272.91365966486	13
0	1755	273.305683969125	14
0	1756	273.305683969125	15
0	1758	273.419950259619	16
0	1759	273.419950259619	17
0	1760	273.511629567847	16
0	1762	273.759132125872	15
0	1765	273.843154933745	16
0	1766	273.843154933745	17
0	1767	274.41365966486	16
0	1769	275.011629567847	15
0	1772	275.195474464227	16
0	1773	275.195474464227	17
0	1774	275.259132125872	16
0	1776	275.91365966486	15
0	1779	276.369968254582	16
0	1780	276.369968254582	17
0	1781	276.511629567847	16
0	1783	276.759132125872	15
0	1785	277.41365966486	14
0	1787	278.011629567847	13
0	1789	278.259132125872	12
0	1792	278.841705511045	13
0	1793	278.841705511045	14
0	1794	278.91365966486	13
0	1796	279.511629567847	12
0	1798	279.759132125872	11
0	1801	280.018436824442	12
0	1802	280.018436824442	13
0	1803	280.41365966486	12
0	1805	281.011629567847	11
0	1808	281.131311471996	12
0	1809	281.131311471996	13
0	1810	281.259132125872	12
0	1813	281.875791972545	13
0	1814	281.875791972545	14
0	1815	281.91365966486	13
0	1817	282.511629567847	12
0	1819	282.759132125872	11
0	1821	283.41365966486	10
0	1824	283.619548073278	11
0	1825	283.619548073278	12
0	1826	284.011629567847	11
0	1828	284.259132125872	10
0	1830	284.91365966486	9
0	1833	285.169970103077	10
0	1834	285.169970103077	11
0	1835	285.511629567847	10
0	1838	285.588911537138	11
0	1839	285.588911537138	12
0	1840	285.759132125872	11
0	1842	286.41365966486	10
0	1845	286.468402668653	11
0	1846	286.468402668653	12
0	1847	287.011629567847	11
0	1849	287.259132125872	10
0	1852	287.360272403502	11
0	1853	287.360272403502	12
0	1854	287.91365966486	11
0	1856	288.511629567847	10
0	1858	288.759132125872	9
0	1861	288.940275618019	10
0	1862	288.940275618019	11
0	1863	289.41365966486	10
0	1866	289.692335258745	11
0	1867	289.692335258745	12
0	1868	290.011629567847	11
0	1870	290.259132125872	10
0	1872	290.91365966486	9
0	1874	291.511629567847	8
0	1877	291.530271709458	9
0	1878	291.530271709458	10
0	1880	291.702421848167	11
0	1881	291.702421848167	12
0	1882	291.759132125872	11
0	1885	292.213402722101	12
0	1886	292.213402722101	13
0	1887	292.41365966486	12
0	1889	293.011629567847	11
0	1892	293.206072325225	12
0	1893	293.206072325225	13
0	1894	293.259132125872	12
0	1897	293.479432612368	13
0	1898	293.479432612368	14
0	1900	293.899805951008	15
0	1901	293.899805951008	16
0	1902	293.91365966486	15
0	1904	294.511629567847	14
0	1906	294.759132125872	13
0	1909	294.940179444551	14
0	1910	294.940179444551	15
0	1912	295.265107224832	16
0	1913	295.265107224832	17
0	1914	295.41365966486	16
0	1917	295.853825241711	17
0	1918	295.853825241711	18
0	1919	296.011629567847	17
0	1922	296.095815574316	18
0	1923	296.095815574316	19
0	1924	296.259132125872	18
0	1927	296.611478425102	19
0	1928	296.611478425102	20
0	1929	296.91365966486	19
0	1932	297.235744490004	20
0	1933	297.235744490004	21
0	1934	297.511629567847	20
0	1936	297.759132125872	19
0	1938	298.41365966486	18
0	1941	298.531512280676	19
0	1942	298.531512280676	20
0	1943	299.011629567847	19
0	1945	299.259132125872	18
0	1947	299.91365966486	17
0	1950	300.049583329748	18
0	1951	300.049583329748	19
0	1952	300.511629567847	18
0	1954	300.759132125872	17
0	1957	301.326569986693	18
0	1958	301.326569986693	19
0	1959	301.41365966486	18
0	1962	301.530642038787	19
0	1963	301.530642038787	20
0	1964	302.011629567847	19
0	1966	302.259132125872	18
0	1969	302.273285126526	19
0	1970	302.273285126526	20
0	1971	302.91365966486	19
0	1974	303.289282814496	20
0	1975	303.289282814496	21
0	1976	303.511629567847	20
0	1978	303.759132125872	19
0	1981	304.376033889	20
0	1982	304.376033889	21
0	1983	304.41365966486	20
0	1985	305.011629567847	19
0	1987	305.259132125872	18
0	1990	305.393170206049	19
0	1991	305.393170206049	20
0	1992	305.91365966486	19
0	1994	306.511629567847	18
0	1996	306.759132125872	17
0	1999	307.355805918817	18
0	2000	307.355805918817	19
0	2001	307.41365966486	18
0	2004	307.923606774165	19
0	2005	307.923606774165	20
0	2006	308.011629567847	19
0	2008	308.259132125872	18
0	2011	308.778943687578	19
0	2012	308.778943687578	20
0	2013	308.91365966486	19
0	2015	309.511629567847	18
0	2017	309.759132125872	17
0	2020	310.347078400025	18
0	2021	310.347078400025	19
0	2022	310.41365966486	18
0	2024	311.011629567847	17
0	2027	311.034806292608	18
0	2028	311.034806292608	19
0	2029	311.259132125872	18
0	2031	311.91365966486	17
0	2033	312.511629567847	16
0	2035	312.759132125872	15
0	2038	312.763216157091	16
0	2039	312.763216157091	17
0	2040	313.41365966486	16
0	2042	314.011629567847	15
0	2044	314.259132125872	14
0	2047	314.338411116188	15
0	2048	314.338411116188	16
0	2049	314.91365966486	15
0	2052	315.141129295717	16
0	2053	315.141129295717	17
0	2054	315.511629567847	16
0	2056	315.759132125872	15
0	2058	316.41365966486	14
0	2060	317.011629567847	13
0	2063	317.063828947453	14
0	2064	317.063828947453	15
0	2065	317.259132125872	14
0	2068	317.351982502098	15
0	2069	317.351982502098	16
0	2070	317.91365966486	15
0	2072	318.511629567847	14
0	2075	318.757347657375	15
0	2076	318.757347657375	16
0	2077	318.759132125872	15
0	2079	319.41365966486	14
0	2082	319.774727295205	15
0	2083	319.774727295205	16
0	2084	320.011629567847	15
0	2086	320.259132125872	14
0	2088	320.91365966486	13
0	2090	321.511629567847	12
0	2092	321.759132125872	11
0	2095	322.03500799267	12
0	2096	322.03500799267	13
0	2097	322.41365966486	12
0	2099	323.011629567847	11
0	2102	323.197614881103	12
0	2103	323.197614881103	13
0	2104	323.259132125872	12
0	2106	323.91365966486	11
0	2108	324.511629567847	10
0	2111	324.726717297614	11
0	2112	324.726717297614	12
0	2113	324.759132125872	11
0	2115	325.41365966486	10
0	2117	326.011629567847	9
0	2119	326.259132125872	8
0	2122	326.38888311211	9
0	2123	326.38888311211	10
0	2124	326.91365966486	9
0	2127	327.223140437319	10
0	2128	327.223140437319	11
0	2129	327.511629567847	10
0	2131	327.759132125872	9
0	2133	328.41365966486	8
0	2136	328.540178274526	9
0	2137	328.540178274526	10
0	2138	329.011629567847	9
0	2140	329.259132125872	8
0	2143	329.496223922033	9
0	2144	329.496223922033	10
0	2145	329.91365966486	9
0	2147	330.511629567847	8
0	2149	330.759132125872	7
0	2152	330.818725417174	8
0	2153	330.818725417174	9
0	2155	331.401983178385	10
0	2156	331.401983178385	11
0	2157	331.41365966486	10
0	2159	332.011629567847	9
0	2161	332.259132125872	8
0	2164	332.664712977716	9
0	2165	332.664712977716	10
0	2166	332.91365966486	9
0	2168	333.511629567847	8
0	2171	333.630638178508	9
0	2172	333.630638178508	10
0	2173	333.759132125872	9
0	2175	334.41365966486	8
0	2178	334.847523393241	9
0	2179	334.847523393241	10
0	2180	335.011629567847	9
0	2182	335.259132125872	8
0	2185	335.744381047895	9
0	2186	335.744381047895	10
0	2187	335.91365966486	9
0	2189	336.511629567847	8
0	2191	336.759132125872	7
0	2194	337.360648286309	8
0	2195	337.360648286309	9
0	2196	337.41365966486	8
0	2198	338.011629567847	7
0	2200	338.259132125872	6
0	2202	338.91365966486	5
0	2205	339.05703698146	6
0	2206	339.05703698146	7
0	2207	339.511629567847	6
0	2209	339.759132125872	5