version 3
run MMc-19-20221127-11:38:40-7588
attr configname MMc
attr datetime 20221127-11:38:40
attr datetimef 20221127-113840
attr experiment MMc
attr inifile omnetpp.ini
attr iterationvars "$mean=uniform(0.5s, 1.5s), $dev=0.5*(uniform(0.5s, 1.5s)), $time=1.5, $num=3, $0=33434, $1=56673, $2=23567"
attr iterationvarsd mean=uniform(0.5s,_1.5s)/dev=0.5#2a(uniform(0.5s,_1.5s))/time=1.5/num=3/33434/56673/23567
attr iterationvarsf mean=uniform(0.5s,_1.5s),dev=0.5#2a(uniform(0.5s,_1.5s)),time=1.5,num=3,33434,56673,23567-
attr measurement "$mean=uniform(0.5s, 1.5s), $dev=0.5*(uniform(0.5s, 1.5s)), $time=1.5, $num=3, $0=33434, $1=56673, $2=23567"
attr network MMc
attr processid 7588
attr repetition 3
attr replication #3
attr resultdir results
attr runnumber 19
attr seedset 19
itervar dev "0.5*(uniform(0.5s, 1.5s))"
itervar mean "uniform(0.5s, 1.5s)"
itervar num 3
itervar time 1.5
config description "MMc module"
config network MMc
config MMc.source.interArrivalTime "truncnormal(uniform(0.5s, 1.5s), 0.5*(uniform(0.5s, 1.5s)))"
config MMc.mmc.serviceTime 1.5s
config MMc.mmc.c 3
config MMc.mmc.capacity 10000
config record-eventlog false
config **.scalar-recording true
config **.vector-recording true
config repeat 4
config seed-1-mt 33434
config seed-2-mt 56673
config seed-3-mt 23567
config output-vector-file MMc-3-1.5-results/3.vec
config output-scalar-file MMc-3-1.5-results/3.sca

vector 0 MMc.mmc queueLength:vector ETV
attr interpolationmode none
attr recordingmode vector
attr title "queue length"
vector 1 MMc.mmc util:vector ETV
attr interpolationmode none
attr recordingmode vector
attr title resources
0	0	0	0
0	6	10.521764343343	1
0	8	11.006722483441	2
0	9	11.006722483441	3
0	10	11.5	2
0	11	11.5	1
0	15	11.887951662599	2
0	16	11.887951662599	3
0	17	12.021764343343	2
0	19	13	1
0	20	13	0
0	27	13.913068319064	1
0	28	14.5	0
0	34	15.272949843808	1
0	35	15.413068319064	0
0	48	17.652337180824	1
0	49	18.44320842916	0
0	55	18.863583024209	1
0	56	19.152337180824	0
0	62	20.096343647507	1
0	63	20.363583024209	0
0	69	20.975990174838	1
0	70	21.596343647507	0
0	73	21.718770477744	1
0	74	21.718770477744	2
0	75	21.863583024209	1
0	77	22.475990174838	0
0	83	23.343270163188	1
0	84	23.363583024209	0
0	90	24.197393913998	1
0	91	24.843270163188	0
0	97	25.003230557311	1
0	98	25.697393913998	0
0	101	26.29639730474	1
0	102	26.29639730474	2
0	103	26.343270163188	1
0	105	26.503230557311	0
0	118	28.751901162561	1
0	120	29.140470004067	2
0	121	29.140470004067	3
0	122	29.659481810171	2
0	123	29.659481810171	1
0	127	29.913419921964	2
0	128	29.913419921964	3
0	129	30.251901162561	2
0	132	31.10613554388	3
0	133	31.10613554388	4
0	134	31.159481810171	3
0	135	31.159481810171	2
0	139	31.734981159423	3
0	140	31.734981159423	4
0	141	31.751901162561	3
0	143	32.659481810171	2
0	144	32.659481810171	1
0	147	33.251901162561	0
0	150	33.649426502074	1
0	151	33.649426502074	2
0	152	34.159481810171	1
0	153	34.159481810171	0
0	157	34.350833518386	1
0	158	34.350833518386	2
0	159	34.751901162561	1
0	162	35.242952539729	2
0	163	35.242952539729	3
0	164	35.659481810171	2
0	165	35.659481810171	1
0	168	36.251901162561	0
0	171	36.949639210968	1
0	172	36.949639210968	2
0	173	37.159481810171	1
0	174	37.159481810171	0
0	181	38.356570743669	1
0	182	38.659481810171	0
0	202	43.641643737635	1
0	203	44.235195371477	0
0	209	44.540054669989	1
0	210	45.141643737635	0
0	213	45.434662213937	1
0	214	45.434662213937	2
0	215	45.735195371477	1
0	218	45.912339639098	2
0	219	45.912339639098	3
0	220	46.040054669989	2
0	222	46.641643737635	1
0	224	47.235195371477	0
0	227	47.516521570176	1
0	228	47.516521570176	2
0	229	47.540054669989	1
0	231	48.141643737635	0
0	234	48.247814567373	1
0	235	48.247814567373	2
0	236	48.735195371477	1
0	238	49.040054669989	0
0	241	49.148172048013	1
0	242	49.148172048013	2
0	243	49.641643737635	1
0	246	50.191600883055	2
0	247	50.191600883055	3
0	248	50.235195371477	2
0	251	50.457094548003	3
0	252	50.457094548003	4
0	253	50.540054669989	3
0	255	51.141643737635	2
0	257	51.735195371477	1
0	260	51.998684979696	2
0	261	51.998684979696	3
0	262	52.040054669989	2
0	264	52.641643737635	1
0	266	53.235195371477	0
0	269	53.32502451568	1
0	270	53.32502451568	2
0	271	53.540054669989	1
0	273	54.141643737635	0
0	276	54.15742496681	1
0	277	54.15742496681	2
0	279	54.583623736749	3
0	280	54.583623736749	4
0	281	54.735195371477	3
0	284	54.969399379125	4
0	285	54.969399379125	5
0	286	55.040054669989	4
0	289	55.596780240948	5
0	290	55.596780240948	6
0	291	55.641643737635	5
0	293	56.235195371477	4
0	295	56.540054669989	3
0	297	57.141643737635	2
0	300	57.311092290812	3
0	301	57.311092290812	4
0	303	57.682132644265	5
0	304	57.682132644265	6
0	305	57.735195371477	5
0	307	58.040054669989	4
0	309	58.641643737635	3
0	312	58.667199575009	4
0	313	58.667199575009	5
0	314	59.235195371477	4
0	317	59.339079014041	5
0	318	59.339079014041	6
0	319	59.540054669989	5
0	322	59.773503016966	6
0	323	59.773503016966	7
0	324	60.141643737635	6
0	326	60.735195371477	5
0	328	61.040054669989	4
0	331	61.361281649941	5
0	332	61.361281649941	6
0	333	61.641643737635	5
0	335	62.235195371477	4
0	337	62.540054669989	3
0	339	63.141643737635	2
0	342	63.534790671229	3
0	343	63.534790671229	4
0	344	63.735195371477	3
0	346	64.040054669989	2
0	348	64.641643737635	1
0	351	64.945275973034	2
0	352	64.945275973034	3
0	353	65.235195371477	2
0	355	65.540054669989	1
0	358	66.088856595034	2
0	359	66.088856595034	3
0	360	66.141643737635	2
0	362	66.735195371477	1
0	365	66.871524360695	2
0	366	66.871524360695	3
0	367	67.040054669989	2
0	369	67.641643737635	1
0	372	67.834531876841	2
0	373	67.834531876841	3
0	374	68.235195371477	2
0	376	68.540054669989	1
0	378	69.141643737635	0
0	381	69.273758715232	1
0	382	69.273758715232	2
0	383	69.735195371477	1
0	385	70.040054669989	0
0	388	70.277115971757	1
0	389	70.277115971757	2
0	390	70.641643737635	1
0	393	70.979511940731	2
0	394	70.979511940731	3
0	395	71.235195371477	2
0	397	71.540054669989	1
0	399	72.141643737635	0
0	402	72.421029149531	1
0	403	72.421029149531	2
0	404	72.735195371477	1
0	406	73.040054669989	0
0	409	73.112828261709	1
0	410	73.112828261709	2
0	411	73.641643737635	1
0	414	74.219274313448	2
0	415	74.219274313448	3
0	416	74.235195371477	2
0	418	74.540054669989	1
0	420	75.141643737635	0
0	423	75.385910849196	1
0	424	75.385910849196	2
0	425	75.735195371477	1
0	427	76.040054669989	0
0	430	76.331378621352	1
0	431	76.331378621352	2
0	432	76.641643737635	1
0	435	77.051885105512	2
0	436	77.051885105512	3
0	437	77.235195371477	2
0	439	77.540054669989	1
0	441	78.141643737635	0
0	444	78.205480196084	1
0	445	78.205480196084	2
0	446	78.735195371477	1
0	448	79.040054669989	0
0	451	79.209591539345	1
0	452	79.209591539345	2
0	453	79.641643737635	1
0	456	80.02973657474	2
0	457	80.02973657474	3
0	458	80.235195371477	2
0	461	80.465828830483	3
0	462	80.465828830483	4
0	463	80.540054669989	3
0	465	81.141643737635	2
0	468	81.564681660046	3
0	469	81.564681660046	4
0	470	81.735195371477	3
0	472	82.040054669989	2
0	474	82.641643737635	1
0	477	83.137620865472	2
0	478	83.137620865472	3
0	479	83.235195371477	2
0	481	83.540054669989	1
0	483	84.141643737635	0
0	489	84.823827470285	1
0	490	85.040054669989	0
0	496	85.684021662349	1
0	498	86.097545298218	2
0	499	86.097545298218	3
0	500	86.323827470285	2
0	502	86.540054669989	1
0	504	87.184021662349	0
0	507	87.480262865991	1
0	508	87.480262865991	2
0	509	87.823827470285	1
0	511	88.040054669989	0
0	517	88.709609211775	1
0	519	89.125942990525	2
0	520	89.125942990525	3
0	521	89.323827470285	2
0	523	89.540054669989	1
0	526	90.204828195958	2
0	527	90.204828195958	3
0	528	90.209609211775	2
0	530	90.823827470285	1
0	532	91.040054669989	0
0	535	91.350853056826	1
0	536	91.350853056826	2
0	537	91.709609211775	1
0	540	92.168947212205	2
0	541	92.168947212205	3
0	542	92.323827470285	2
0	545	92.419181189556	3
0	546	92.419181189556	4
0	547	92.540054669989	3
0	549	93.209609211775	2
0	552	93.330522149395	3
0	553	93.330522149395	4
0	554	93.823827470285	3
0	556	94.040054669989	2
0	558	94.709609211775	1
0	561	94.938190928429	2
0	562	94.938190928429	3
0	563	95.323827470285	2
0	565	95.540054669989	1
0	568	95.70912322329	2
0	569	95.70912322329	3
0	570	96.209609211775	2
0	572	96.823827470285	1
0	575	96.833357559058	2
0	576	96.833357559058	3
0	577	97.040054669989	2
0	579	97.709609211775	1
0	581	98.323827470285	0
0	587	98.929458236827	1
0	588	99.209609211775	0
0	601	101.685300447934	1
0	603	102.229639134619	2
0	604	102.229639134619	3
0	605	102.522247217946	2
0	606	102.522247217946	1
0	609	103.185300447934	0
0	622	105.406696501878	1
0	624	105.49741932406	2
0	625	105.49741932406	3
0	626	105.63073021686	2
0	627	105.63073021686	1
0	630	106.906696501878	0
0	633	107.128758272532	1
0	634	107.128758272532	2
0	635	107.13073021686	1
0	636	107.13073021686	0
0	650	109.454220350934	1
0	652	110.372976835067	2
0	653	110.372976835067	3
0	654	110.394144655802	2
0	655	110.394144655802	1
0	658	110.954220350934	0
0	661	111.057022951658	1
0	662	111.057022951658	2
0	664	111.558092920714	3
0	665	111.558092920714	4
0	666	111.894144655802	3
0	667	111.894144655802	2
0	671	112.213897268091	3
0	672	112.213897268091	4
0	673	112.454220350934	3
0	675	113.394144655802	2
0	676	113.394144655802	1
0	680	113.510965753293	2
0	681	113.510965753293	3
0	682	113.954220350934	2
0	685	114.46996473086	3
0	686	114.46996473086	4
0	687	114.894144655802	3
0	688	114.894144655802	2
0	692	115.414866137542	3
0	693	115.414866137542	4
0	695	115.427662794036	5
0	696	115.427662794036	6
0	697	115.454220350934	5
0	699	116.394144655802	4
0	700	116.394144655802	3
0	704	116.65625827467	4
0	705	116.65625827467	5
0	706	116.954220350934	4
0	708	117.894144655802	3
0	709	117.894144655802	2
0	713	118.334716368753	3
0	714	118.334716368753	4
0	715	118.454220350934	3
0	717	119.394144655802	2
0	718	119.394144655802	1
0	722	119.745775038512	2
0	723	119.745775038512	3
0	724	119.954220350934	2
0	727	120.596870210579	3
0	728	120.596870210579	4
0	730	120.663946858714	5
0	731	120.663946858714	6
0	732	120.894144655802	5
0	733	120.894144655802	4
0	737	121.206947975378	5
0	738	121.206947975378	6
0	739	121.454220350934	5
0	742	122.070275242503	6
0	743	122.070275242503	7
0	744	122.394144655802	6
0	745	122.394144655802	5
0	749	122.777439037881	6
0	750	122.777439037881	7
0	751	122.954220350934	6
0	754	123.45074668413	7
0	755	123.45074668413	8
0	756	123.894144655802	7
0	757	123.894144655802	6
0	760	124.454220350934	5
0	763	124.622009969388	6
0	764	124.622009969388	7
0	765	125.394144655802	6
0	766	125.394144655802	5
0	769	125.954220350934	4
0	772	125.987707340421	5
0	773	125.987707340421	6
0	775	126.786261555455	7
0	776	126.786261555455	8
0	777	126.894144655802	7
0	778	126.894144655802	6
0	781	127.454220350934	5
0	784	127.697808975474	6
0	785	127.697808975474	7
0	786	128.394144655802	6
0	787	128.394144655802	5
0	791	128.850084223348	6
0	792	128.850084223348	7
0	793	128.954220350934	6
0	795	129.894144655802	5
0	796	129.894144655802	4
0	799	130.454220350934	3
0	802	130.633125831458	4
0	803	130.633125831458	5
0	805	131.347331412329	6
0	806	131.347331412329	7
0	807	131.394144655802	6
0	808	131.394144655802	5
0	811	131.954220350934	4
0	814	132.506969136551	5
0	815	132.506969136551	6
0	816	132.894144655802	5
0	817	132.894144655802	4
0	821	133.361561804498	5
0	822	133.361561804498	6
0	823	133.454220350934	5
0	825	134.394144655802	4
0	826	134.394144655802	3
0	830	134.630020332338	4
0	831	134.630020332338	5
0	832	134.954220350934	4
0	835	135.044236574552	5
0	836	135.044236574552	6
0	837	135.894144655802	5
0	838	135.894144655802	4
0	841	136.454220350934	3
0	844	136.734915947343	4
0	845	136.734915947343	5
0	846	137.394144655802	4
0	847	137.394144655802	3
0	850	137.954220350934	2
0	853	138.505323335977	3
0	854	138.505323335977	4
0	855	138.894144655802	3
0	856	138.894144655802	2
0	860	139.286536218391	3
0	861	139.286536218391	4
0	862	139.454220350934	3
0	864	140.394144655802	2
0	865	140.394144655802	1
0	869	140.398878996713	2
0	870	140.398878996713	3
0	871	140.954220350934	2
0	874	141.106761418334	3
0	875	141.106761418334	4
0	876	141.894144655802	3
0	877	141.894144655802	2
0	880	142.454220350934	1
0	883	142.867947051866	2
0	884	142.867947051866	3
0	885	143.394144655802	2
0	886	143.394144655802	1
0	889	143.954220350934	0
0	892	144.645823785009	1
0	893	144.645823785009	2
0	894	144.894144655802	1
0	895	144.894144655802	0
0	899	145.303632437238	1
0	900	145.303632437238	2
0	901	145.454220350934	1
0	904	146.145957180742	2
0	905	146.145957180742	3
0	906	146.394144655802	2
0	907	146.394144655802	1
0	910	146.954220350934	0
0	913	147.38481679184	1
0	914	147.38481679184	2
0	915	147.894144655802	1
0	916	147.894144655802	0
0	920	148.292659308649	1
0	921	148.292659308649	2
0	922	148.454220350934	1
0	924	149.394144655802	0
0	930	149.753022222042	1
0	931	149.954220350934	0
0	934	150.485510390315	1
0	935	150.485510390315	2
0	936	150.894144655802	1
0	938	151.253022222042	0
0	944	151.76786115753	1
0	946	151.785836354252	2
0	947	151.785836354252	3
0	948	152.394144655802	2
0	950	152.753022222042	1
0	953	153.067027576008	2
0	954	153.067027576008	3
0	955	153.26786115753	2
0	957	153.894144655802	1
0	960	154.146229061443	2
0	961	154.146229061443	3
0	962	154.253022222042	2
0	964	154.76786115753	1
0	967	154.893226062812	2
0	968	154.893226062812	3
0	969	155.394144655802	2
0	971	155.753022222042	1
0	973	156.26786115753	0
0	979	156.922979829143	1
0	980	157.253022222042	0
0	983	157.709765580549	1
0	984	157.709765580549	2
0	985	157.76786115753	1
0	987	158.422979829143	0
0	993	158.961694166195	1
0	994	159.26786115753	0
0	997	159.476113465396	1
0	998	159.476113465396	2
0	999	159.922979829143	1
0	1001	160.461694166195	0
0	1014	162.560177277735	1
0	1015	163.06540085475	0
0	1021	163.921319441819	1
0	1022	164.060177277735	0
0	1032	165.504709864546	1
0	1033	165.504709864546	2
0	1034	165.560177277735	1
0	1036	166.986311008767	0
0	1042	167.04506392356	1
0	1043	167.060177277735	0
0	1046	167.598229756168	1
0	1047	167.598229756168	2
0	1048	168.486311008767	1
0	1050	168.54506392356	0
0	1056	168.884536954502	1
0	1057	169.986311008767	0
0	1063	170.071032786585	1
0	1064	170.384536954502	0
0	1067	170.657269914286	1
0	1068	170.657269914286	2
0	1070	171.38671192804	3
0	1071	171.38671192804	4
0	1072	171.486311008767	3
0	1074	171.571032786585	2
0	1076	171.884536954502	1
0	1079	172.161932096124	2
0	1080	172.161932096124	3
0	1081	172.986311008767	2
0	1083	173.071032786585	1
0	1086	173.285340421476	2
0	1087	173.285340421476	3
0	1088	173.384536954502	2
0	1091	173.981311339703	3
0	1092	173.981311339703	4
0	1093	174.486311008767	3
0	1095	174.571032786585	2
0	1097	174.884536954502	1
0	1100	175.143390173058	2
0	1101	175.143390173058	3
0	1103	175.702846243108	4
0	1104	175.702846243108	5
0	1105	175.986311008767	4
0	1107	176.071032786585	3
0	1109	176.384536954502	2
0	1112	177.066308091865	3
0	1113	177.066308091865	4
0	1114	177.486311008767	3
0	1116	177.571032786585	2
0	1118	177.884536954502	1
0	1121	178.500370741759	2
0	1122	178.500370741759	3
0	1123	178.986311008767	2
0	1125	179.071032786585	1
0	1127	179.384536954502	0
0	1130	180.458228975675	1
0	1131	180.458228975675	2
0	1132	180.486311008767	1
0	1134	180.571032786585	0
0	1154	184.902508325662	1
0	1155	185.254765359507	0
0	1161	185.567922777776	1
0	1162	186.402508325662	0
0	1165	186.506070795763	1
0	1166	186.506070795763	2
0	1167	186.754765359507	1
0	1169	187.067922777776	0
0	1172	187.479294952593	1
0	1173	187.479294952593	2
0	1175	187.605345322638	3
0	1176	187.605345322638	4
0	1177	187.902508325662	3
0	1180	188.010951084637	4
0	1181	188.010951084637	5
0	1182	188.254765359507	4
0	1184	188.567922777776	3
0	1186	189.402508325662	2
0	1188	189.754765359507	1
0	1191	189.869553033856	2
0	1192	189.869553033856	3
0	1194	189.915583200297	4
0	1195	189.915583200297	5
0	1196	190.067922777776	4
0	1198	190.902508325662	3
0	1200	191.254765359507	2
0	1202	191.567922777776	1
0	1205	192.089328599525	2
0	1206	192.089328599525	3
0	1207	192.402508325662	2
0	1209	192.754765359507	1
0	1211	193.067922777776	0
0	1214	193.442633996681	1
0	1215	193.442633996681	2
0	1216	193.902508325662	1
0	1219	193.990600785863	2
0	1220	193.990600785863	3
0	1221	194.254765359507	2
0	1223	194.567922777776	1
0	1226	194.841579912622	2
0	1227	194.841579912622	3
0	1228	195.402508325662	2
0	1230	195.754765359507	1
0	1233	195.820849271093	2
0	1234	195.820849271093	3
0	1235	196.067922777776	2
0	1238	196.312664433158	3
0	1239	196.312664433158	4
0	1241	196.416580180586	5
0	1242	196.416580180586	6
0	1243	196.902508325662	5
0	1245	197.254765359507	4
0	1247	197.567922777776	3
0	1250	198.139377560596	4
0	1251	198.139377560596	5
0	1252	198.402508325662	4
0	1255	198.518695831601	5
0	1256	198.518695831601	6
0	1257	198.754765359507	5
0	1259	199.067922777776	4
0	1262	199.20242611543	5
0	1263	199.20242611543	6
0	1265	199.87747781525	7
0	1266	199.87747781525	8
0	1267	199.902508325662	7
0	1269	200.254765359507	6
0	1271	200.567922777776	5
0	1274	201.218819864682	6
0	1275	201.218819864682	7
0	1276	201.402508325662	6
0	1278	201.754765359507	5
0	1280	202.067922777776	4
0	1282	202.902508325662	3
0	1285	203.094176878688	4
0	1286	203.094176878688	5
0	1287	203.254765359507	4
0	1289	203.567922777776	3
0	1291	204.402508325662	2
0	1293	204.754765359507	1
0	1296	204.774279590884	2
0	1297	204.774279590884	3
0	1298	205.067922777776	2
0	1300	205.902508325662	1
0	1302	206.254765359507	0
0	1305	206.39442002967	1
0	1306	206.39442002967	2
0	1307	206.567922777776	1
0	1310	207.234114211827	2
0	1311	207.234114211827	3
0	1312	207.402508325662	2
0	1315	207.44269016645	3
0	1316	207.44269016645	4
0	1317	207.754765359507	3
0	1319	208.067922777776	2
0	1321	208.902508325662	1
0	1324	209.088006958452	2
0	1325	209.088006958452	3
0	1326	209.254765359507	2
0	1328	209.567922777776	1
0	1331	210.054471989464	2
0	1332	210.054471989464	3
0	1333	210.402508325662	2
0	1335	210.754765359507	1
0	1337	211.067922777776	0
0	1340	211.095991742044	1
0	1341	211.095991742044	2
0	1342	211.902508325662	1
0	1344	212.254765359507	0
0	1347	212.280603606689	1
0	1348	212.280603606689	2
0	1349	212.567922777776	1
0	1351	213.402508325662	0
0	1364	215.498137657232	1
0	1365	215.975527976005	0
0	1371	216.630384870209	1
0	1372	216.998137657232	0
0	1378	217.556511252059	1
0	1379	218.130384870209	0
0	1385	218.932726412333	1
0	1386	219.056511252059	0
0	1389	219.422728315191	1
0	1390	219.422728315191	2
0	1391	219.630384870209	1
0	1393	220.432726412333	0
0	1420	225.538702636607	1
0	1422	225.791417223604	2
0	1423	225.791417223604	3
0	1424	226.131795312609	2
0	1425	226.131795312609	1
0	1428	227.038702636607	0
0	1431	227.083802146026	1
0	1432	227.083802146026	2
0	1433	227.631795312609	1
0	1434	227.631795312609	0
0	1438	228.291335160207	1
0	1439	228.291335160207	2
0	1440	228.538702636607	1
0	1443	229.1007542916	2
0	1444	229.1007542916	3
0	1445	229.131795312609	2
0	1446	229.131795312609	1
0	1450	229.219019623181	2
0	1451	229.219019623181	3
0	1452	230.038702636607	2
0	1454	230.631795312609	1
0	1455	230.631795312609	0
0	1459	230.675479089619	1
0	1460	230.675479089619	2
0	1461	231.538702636607	1
0	1463	232.131795312609	0
0	1469	232.295024895592	1
0	1470	233.038702636607	0
0	1473	233.541200965639	1
0	1474	233.541200965639	2
0	1475	233.631795312609	1
0	1477	233.795024895592	0
0	1480	234.299447133071	1
0	1481	234.299447133071	2
0	1482	234.538702636607	1
0	1485	234.745873849696	2
0	1486	234.745873849696	3
0	1488	234.823423174154	4
0	1489	234.823423174154	5
0	1490	235.131795312609	4
0	1492	235.295024895592	3
0	1495	235.317122200243	4
0	1496	235.317122200243	5
0	1498	235.779900955582	6
0	1499	235.779900955582	7
0	1500	236.038702636607	6
0	1502	236.631795312609	5
0	1504	236.795024895592	4
0	1507	237.28578060943	5
0	1508	237.28578060943	6
0	1509	237.538702636607	5
0	1512	238.076847773709	6
0	1513	238.076847773709	7
0	1514	238.131795312609	6
0	1516	238.295024895592	5
0	1518	239.038702636607	4
0	1521	239.232818570342	5
0	1522	239.232818570342	6
0	1523	239.631795312609	5
0	1525	239.795024895592	4
0	1528	240.272372534689	5
0	1529	240.272372534689	6
0	1530	240.538702636607	5
0	1532	241.131795312609	4
0	1534	241.295024895592	3
0	1537	241.413399611498	4
0	1538	241.413399611498	5
0	1539	242.038702636607	4
0	1541	242.631795312609	3
0	1543	242.795024895592	2
0	1546	242.904845646727	3
0	1547	242.904845646727	4
0	1548	243.538702636607	3
0	1551	243.583124303332	4
0	1552	243.583124303332	5
0	1553	244.131795312609	4
0	1555	244.295024895592	3
0	1558	244.548411553279	4
0	1559	244.548411553279	5
0	1560	245.038702636607	4
0	1562	245.631795312609	3
0	1564	245.795024895592	2
0	1566	246.538702636607	1
0	1569	246.822266410207	2
0	1570	246.822266410207	3
0	1571	247.131795312609	2
0	1573	247.295024895592	1
0	1576	247.742149075989	2
0	1577	247.742149075989	3
0	1578	248.038702636607	2
0	1580	248.631795312609	1
0	1582	248.795024895592	0
0	1585	249.164520213408	1
0	1586	249.164520213408	2
0	1587	249.538702636607	1
0	1589	250.131795312609	0
0	1592	250.249527040606	1
0	1593	250.249527040606	2
0	1594	250.295024895592	1
0	1596	251.038702636607	0
0	1599	251.364361921718	1
0	1600	251.364361921718	2
0	1601	251.631795312609	1
0	1603	251.795024895592	0
0	1606	252.147224528912	1
0	1607	252.147224528912	2
0	1608	252.538702636607	1
0	1611	252.700955123488	2
0	1612	252.700955123488	3
0	1613	253.131795312609	2
0	1615	253.295024895592	1
0	1618	253.953817056966	2
0	1619	253.953817056966	3
0	1620	254.038702636607	2
0	1623	254.514996725324	3
0	1624	254.514996725324	4
0	1625	254.631795312609	3
0	1628	254.66410839435	4
0	1629	254.66410839435	5
0	1630	254.795024895592	4
0	1632	255.538702636607	3
0	1635	255.600179138891	4
0	1636	255.600179138891	5
0	1637	256.131795312609	4
0	1640	256.283637670742	5
0	1641	256.283637670742	6
0	1642	256.295024895592	5
0	1644	257.038702636607	4
0	1647	257.444439795161	5
0	1648	257.444439795161	6
0	1649	257.631795312609	5
0	1651	257.795024895592	4
0	1653	258.538702636607	3
0	1656	258.600857555684	4
0	1657	258.600857555684	5
0	1658	259.131795312609	4
0	1660	259.295024895592	3
0	1663	259.915461018093	4
0	1664	259.915461018093	5
0	1665	260.038702636607	4
0	1668	260.482100721119	5
0	1669	260.482100721119	6
0	1670	260.631795312609	5
0	1672	260.795024895592	4
0	1674	261.538702636607	3
0	1676	262.131795312609	2
0	1679	262.16072903824	3
0	1680	262.16072903824	4
0	1681	262.295024895592	3
0	1683	263.038702636607	2
0	1686	263.269720712206	3
0	1687	263.269720712206	4
0	1688	263.631795312609	3
0	1690	263.795024895592	2
0	1693	264.146612947967	3
0	1694	264.146612947967	4
0	1696	264.528896985543	5
0	1697	264.528896985543	6
0	1698	264.538702636607	5
0	1700	265.131795312609	4
0	1702	265.295024895592	3
0	1705	265.480004099221	4
0	1706	265.480004099221	5
0	1708	265.962574646127	6
0	1709	265.962574646127	7
0	1710	266.038702636607	6
0	1713	266.568642511094	7
0	1714	266.568642511094	8
0	1715	266.631795312609	7
0	1717	266.795024895592	6
0	1720	267.377706981327	7
0	1721	267.377706981327	8
0	1722	267.538702636607	7
0	1724	268.131795312609	6
0	1726	268.295024895592	5
0	1729	268.879154426144	6
0	1730	268.879154426144	7
0	1731	269.038702636607	6
0	1733	269.631795312609	5
0	1735	269.795024895592	4
0	1737	270.538702636607	3
0	1740	270.902082904618	4
0	1741	270.902082904618	5
0	1742	271.131795312609	4
0	1744	271.295024895592	3
0	1747	271.706469129375	4
0	1748	271.706469129375	5
0	1749	272.038702636607	4
0	1751	272.631795312609	3
0	1753	272.795024895592	2
0	1756	273.318570406007	3
0	1757	273.318570406007	4
0	1758	273.538702636607	3
0	1761	274.02351167511	4
0	1762	274.02351167511	5
0	1764	274.051779886262	6
0	1765	274.051779886262	7
0	1766	274.131795312609	6
0	1768	274.295024895592	5
0	1771	274.980509731596	6
0	1772	274.980509731596	7
0	1773	275.038702636607	6
0	1775	275.631795312609	5
0	1777	275.795024895592	4
0	1780	276.168049384844	5
0	1781	276.168049384844	6
0	1782	276.538702636607	5
0	1784	277.131795312609	4
0	1786	277.295024895592	3
0	1789	277.683476482357	4
0	1790	277.683476482357	5
0	1792	277.869405148427	6
0	1793	277.869405148427	7
0	1794	278.038702636607	6
0	1797	278.521462004731	7
0	1798	278.521462004731	8
0	1799	278.631795312609	7
0	1801	278.795024895592	6
0	1803	279.538702636607	5
0	1806	279.763058556737	6
0	1807	279.763058556737	7
0	1808	280.131795312609	6
0	1810	280.295024895592	5
0	1812	281.038702636607	4
0	1815	281.565022115961	5
0	1816	281.565022115961	6
0	1817	281.631795312609	5
0	1819	281.795024895592	4
0	1822	282.084869715143	5
0	1823	282.084869715143	6
0	1824	282.538702636607	5
0	1826	283.131795312609	4
0	1828	283.295024895592	3
0	1831	283.727892661366	4
0	1832	283.727892661366	5
0	1833	284.038702636607	4
0	1836	284.36731625496	5
0	1837	284.36731625496	6
0	1838	284.631795312609	5
0	1840	284.795024895592	4
0	1842	285.538702636607	3
0	1845	285.798144761839	4
0	1846	285.798144761839	5
0	1847	286.131795312609	4
0	1849	286.295024895592	3
0	1851	287.038702636607	2
0	1854	287.17187316574	3
0	1855	287.17187316574	4
0	1856	287.631795312609	3
0	1858	287.795024895592	2
0	1860	288.538702636607	1
0	1863	288.656230889275	2
0	1864	288.656230889275	3
0	1865	289.131795312609	2
0	1867	289.295024895592	1
0	1870	289.426594825768	2
0	1871	289.426594825768	3
0	1872	290.038702636607	2
0	1874	290.631795312609	1
0	1876	290.795024895592	0
0	1879	291.171164151465	1
0	1880	291.171164151465	2
0	1881	291.538702636607	1
0	1884	291.903405691545	2
0	1885	291.903405691545	3
0	1886	292.131795312609	2
0	1888	292.295024895592	1
0	1890	293.038702636607	0
0	1893	293.568670646578	1
0	1894	293.568670646578	2
0	1895	293.631795312609	1
0	1897	293.795024895592	0
0	1900	293.976033381626	1
0	1901	293.976033381626	2
0	1902	294.538702636607	1
0	1904	295.131795312609	0
0	1917	297.271073292854	1
0	1918	297.71792251501	0
0	1924	298.296342585075	1
0	1925	298.771073292854	0
0	1945	303.19454454019	1
0	1946	303.308852920277	0
0	1952	304.530721094085	1
0	1953	304.69454454019	0
0	1959	305.85208404108	1
0	1960	306.030721094085	0
0	1966	306.306456460064	1
0	1968	307.040792135086	2
0	1969	307.040792135086	3
0	1970	307.35208404108	2
0	1973	307.497624306113	3
0	1974	307.497624306113	4
0	1975	307.530721094085	3
0	1977	307.806456460064	2
0	1980	308.212130813057	3
0	1981	308.212130813057	4
0	1982	308.85208404108	3
0	1984	309.030721094085	2
0	1986	309.306456460064	1
0	1989	309.785682744031	2
0	1990	309.785682744031	3
0	1991	310.35208404108	2
0	1993	310.530721094085	1
0	1995	310.806456460064	0
0	1998	311.418308026075	1
0	1999	311.418308026075	2
0	2000	311.85208404108	1
0	2002	312.030721094085	0
0	2008	312.399251484837	1
0	2010	313.103100815623	2
0	2011	313.103100815623	3
0	2012	313.35208404108	2
0	2014	313.530721094085	1
0	2017	313.898294387146	2
0	2018	313.898294387146	3
0	2019	313.899251484837	2
0	2021	314.85208404108	1
0	2024	314.964522766401	2
0	2025	314.964522766401	3
0	2026	315.030721094085	2
0	2029	315.257919850825	3
0	2030	315.257919850825	4
0	2031	315.399251484837	3
0	2034	315.517436915717	4
0	2035	315.517436915717	5
0	2036	316.35208404108	4
0	2039	316.389937129704	5
0	2040	316.389937129704	6
0	2041	316.530721094085	5
0	2043	316.899251484837	4
0	2045	317.85208404108	3
0	2048	317.966157982926	4
0	2049	317.966157982926	5
0	2050	318.030721094085	4
0	2052	318.399251484837	3
0	2055	318.941817394097	4
0	2056	318.941817394097	5
0	2057	319.35208404108	4
0	2059	319.530721094085	3
0	2061	319.899251484837	2
0	2064	319.969529554526	3
0	2065	319.969529554526	4
0	2066	320.85208404108	3
0	2069	321.002865364021	4
0	2070	321.002865364021	5
0	2071	321.030721094085	4
0	2073	321.399251484837	3
0	2076	321.674231082627	4
0	2077	321.674231082627	5
0	2079	322.308952827068	6
0	2080	322.308952827068	7
0	2081	322.35208404108	6
0	2083	322.530721094085	5
0	2085	322.899251484837	4
0	2088	323.057164678107	5
0	2089	323.057164678107	6
0	2091	323.582007067141	7
0	2092	323.582007067141	8
0	2093	323.85208404108	7
0	2095	324.030721094085	6
0	2097	324.399251484837	5
0	2100	325.015500854797	6
0	2101	325.015500854797	7
0	2102	325.35208404108	6
0	2104	325.530721094085	5
0	2106	325.899251484837	4
0	2109	326.200000389579	5
0	2110	326.200000389579	6
0	2112	326.643740098045	7
0	2113	326.643740098045	8
0	2114	326.85208404108	7
0	2116	327.030721094085	6
0	2118	327.399251484837	5
0	2121	327.872075210069	6
0	2122	327.872075210069	7
0	2123	328.35208404108	6
0	2125	328.530721094085	5
0	2128	328.739238951047	6
0	2129	328.739238951047	7
0	2130	328.899251484837	6
0	2132	329.85208404108	5
0	2135	329.934298702943	6
0	2136	329.934298702943	7
0	2137	330.030721094085	6
0	2139	330.399251484837	5
0	2141	331.35208404108	4
0	2144	331.527276528671	5
0	2145	331.527276528671	6
0	2146	331.530721094085	5
0	2148	331.899251484837	4
0	2151	332.502161287929	5
0	2152	332.502161287929	6
0	2153	332.85208404108	5
0	2155	333.030721094085	4
0	2158	333.157396148489	5
0	2159	333.157396148489	6
0	2160	333.399251484837	5
0	2162	334.35208404108	4
0	2164	334.530721094085	3
0	2167	334.586638151432	4
0	2168	334.586638151432	5
0	2169	334.899251484837	4
0	2171	335.85208404108	3
0	2173	336.030721094085	2
0	2176	336.101790186181	3
0	2177	336.101790186181	4
0	2178	336.399251484837	3
0	2180	337.35208404108	2
0	2182	337.530721094085	1
0	2184	337.899251484837	0
0	2187	338.045803002568	1
0	2188	338.045803002568	2
0	2190	338.531108841771	3
0	2191	338.531108841771	4
0	2192	338.85208404108	3
0	2194	339.030721094085	2
0	2196	339.399251484837	1
0	2199	339.519319136962	2
0	2200	339.519319136962	3
0	2201	340.35208404108	2
0	2203	340.530721094085	1
0	2205	340.899251484837	0
0	2208	341.394023512694	1
0	2209	341.394023512694	2
0	2210	341.85208404108	1
0	2212	342.030721094085	0
0	2215	342.050075115174	1
0	2216	342.050075115174	2
0	2217	342.399251484837	1
0	2220	342.499546900858	2
0	2221	342.499546900858	3
0	2222	343.35208404108	2
0	2224	343.530721094085	1
0	2227	343.738682133925	2
0	2228	343.738682133925	3
0	2229	343.899251484837	2
0	2231	344.85208404108	1
0	2234	345.019720764412	2
0	2235	345.019720764412	3
0	2236	345.030721094085	2
0	2238	345.399251484837	1
0	2240	346.35208404108	0
0	2246	346.765976384332	1
0	2247	346.899251484837	0
0	2253	348.180556970363	1
0	2254	348.265976384332	0
0	2260	349.500596912671	1
0	2261	349.680556970363	0
0	2267	350.749399318503	1
0	2268	351.000596912671	0
0	2281	354.052971623401	1
0	2282	354.907080336121	0