version 3
run k_MM1_rand-12-20221127-16:03:21-5740
attr configname k_MM1_rand
attr datetime 20221127-16:03:21
attr datetimef 20221127-160321
attr experiment k_MM1_rand
attr inifile omnetpp.ini
attr iterationvars "$time=1.5, $num=5, $0=53542, $1=75335, $2=34542"
attr iterationvarsd time=1.5/num=5/53542/75335/34542
attr iterationvarsf time=1.5,num=5,53542,75335,34542-
attr measurement "$time=1.5, $num=5, $0=53542, $1=75335, $2=34542"
attr network randkMM1
attr processid 5740
attr repetition 0
attr replication #0
attr resultdir results
attr runnumber 12
attr seedset 12
itervar num 5
itervar time 1.5
config description "MM1 module k-times random"
config network randkMM1
config **.source.interArrivalTime "truncnormal(0.5s, 1.5s)"
config **.serviceTime 1.5s
config **.c 5
config **.capacity 10000
config record-eventlog false
config **.scalar-recording true
config **.vector-recording true
config repeat 4
config seed-1-mt 53542
config seed-2-mt 75335
config seed-3-mt 34542
config output-vector-file k_MM1_rand-5-1.5-results/0.vec
config output-scalar-file k_MM1_rand-5-1.5-results/0.sca

vector 0 randkMM1.mm1[1] util:vector ETV
attr interpolationmode none
attr recordingmode vector
attr title resources
vector 1 randkMM1.mm1[0] util:vector ETV
attr interpolationmode none
attr recordingmode vector
attr title resources
vector 2 randkMM1.mm1[3] util:vector ETV
attr interpolationmode none
attr recordingmode vector
attr title resources
vector 3 randkMM1.mm1[4] util:vector ETV
attr interpolationmode none
attr recordingmode vector
attr title resources
vector 4 randkMM1.mm1[3] queueLength:vector ETV
attr interpolationmode none
attr recordingmode vector
attr title "queue length"
vector 5 randkMM1.mm1[4] queueLength:vector ETV
attr interpolationmode none
attr recordingmode vector
attr title "queue length"
vector 6 randkMM1.mm1[2] util:vector ETV
attr interpolationmode none
attr recordingmode vector
attr title resources
vector 7 randkMM1.mm1[2] queueLength:vector ETV
attr interpolationmode none
attr recordingmode vector
attr title "queue length"
vector 8 randkMM1.mm1[1] queueLength:vector ETV
attr interpolationmode none
attr recordingmode vector
attr title "queue length"
vector 9 randkMM1.mm1[0] queueLength:vector ETV
attr interpolationmode none
attr recordingmode vector
attr title "queue length"
0	6	11.5	1
0	81	22.930745884574	1
0	99	25.934437910581	1
0	212	40.790358229	1
0	231	42.487507392997	1
0	240	43.987507392997	1
0	281	51.837921511403	1
0	325	59.946204284803	1
0	342	62.636042967276	1
0	406	69.311003767513	1
0	456	72.670890538363	1
0	478	74.170890538363	1
0	530	79.00973795705	1
0	578	84.608268275196	1
0	620	91.306845414545	1
0	693	102.244332557039	1
0	831	116.442023674452	1
0	875	121.822886915629	1
0	892	124.128845601961	1
0	905	125.628845601961	1
0	956	129.230413696129	1
0	970	130.730413696129	1
0	987	132.230413696129	1
0	998	133.730413696129	1
0	1029	137.774863782425	1
0	1067	144.223615629137	1
0	1085	149.069535607851	1
0	1111	153.210892590513	1
0	1127	154.710892590513	1
0	1136	156.210892590513	1
0	1147	157.710892590513	1
0	1183	162.286033758559	1
0	1217	172.097823713524	1
0	1233	174.405366716307	1
0	1246	175.905366716307	1
0	1262	177.405366716307	1
0	1274	178.905366716307	1
0	1287	181.704120706271	1
0	1301	183.204120706271	1
0	1312	184.704120706271	1
0	1364	194.298309483537	1
0	1402	197.179414603108	1
0	1421	198.679414603108	1
0	1443	200.179414603108	1
0	1465	201.679414603108	1
0	1476	203.179414603108	1
0	1503	204.679414603108	1
0	1525	206.179414603108	1
0	1539	207.679414603108	1
0	1553	209.179414603108	1
0	1604	213.029365746219	1
0	1633	215.886522786928	1
0	1682	219.750785632887	1
0	1696	221.250785632887	1
0	1718	222.750785632887	1
0	1742	224.250785632887	1
0	1762	225.750785632887	1
0	1796	229.738919803137	1
0	1807	231.238919803137	1
0	1813	232.738919803137	1
0	1878	239.914937588045	1
0	1936	246.868235652211	1
0	1979	252.560731028996	1
0	1991	254.060731028996	1
0	2012	255.560731028996	1
0	2029	257.060731028996	1
0	2046	258.560731028996	1
0	2052	260.060731028996	1
0	2085	264.287884859169	1
0	2148	273.950148236914	1
0	2159	275.450148236914	1
0	2170	276.950148236914	1
0	2249	285.897828535944	1
0	2277	288.254731481793	1
0	2301	289.754731481793	1
0	2317	291.254731481793	1
0	2334	292.754731481793	1
0	2348	294.254731481793	1
0	2357	295.754731481793	1
0	2365	297.254731481793	1
0	2371	298.754731481793	1
0	2374	300.254731481793	1
0	2398	305.600637110108	1
0	2430	307.408790040232	1
0	2447	308.908790040232	1
0	2461	310.408790040232	1
0	2482	311.908790040232	1
0	2494	313.408790040232	1
0	2503	314.908790040232	1
0	2511	316.408790040232	1
0	2525	318.108420465517	1
0	2583	325.724616724326	1
0	2601	327.224616724326	1
0	2659	335.319238918145	1
0	2678	336.819238918145	1
0	2697	338.319238918145	1
0	2714	339.819238918145	1
0	2723	341.319238918145	1
0	2761	346.763279994472	1
0	2767	348.263279994472	1
0	2783	351.626314919162	1
0	2893	363.021628450451	1
0	2899	364.521628450451	1
0	2907	366.021628450451	1
0	2921	367.746282410057	1
0	2952	373.053414928041	1
0	3025	382.684675290948	1
0	3039	384.184675290948	1
0	3087	394.132285770811	1
0	3108	395.804965604846	1
0	3201	406.893207038349	1
0	3223	409.327154501051	1
0	3240	412.080713678838	1
0	3264	414.712320490535	1
0	3278	416.212320490535	1
0	3297	417.712320490535	1
0	3343	420.404586033884	1
0	3368	421.904586033884	1
0	3415	426.329906531165	1
0	3435	427.829906531165	1
0	3460	432.524302427628	1
0	3473	434.024302427628	1
0	3493	435.530500153816	1
0	3534	442.235303936753	1
0	3555	443.735303936753	1
0	3583	445.700249704678	1
0	3600	447.200249704678	1
0	3654	454.016305243862	1
0	3681	455.516305243862	1
0	3724	460.778340506044	1
0	3751	464.634966791634	1
0	3788	471.584005336061	1
0	3801	474.463565102788	1
0	3822	476.019024332793	1
0	3853	480.140692902341	1
0	3869	481.924619172199	1
0	3912	488.042078583125	1
0	3938	492.663683625442	1
0	4012	500.042688182744	1
0	4049	503.326543854005	1
0	4117	515.189155130377	1
0	4142	521.326283495254	1
0	4164	524.057698281589	1
0	4186	527.674139691863	1
0	4198	529.174139691863	1
0	4213	531.00216884566	1
0	4232	532.50216884566	1
0	4254	534.00216884566	1
0	4263	535.50216884566	1
0	4271	537.00216884566	1
0	4282	538.50216884566	1
0	4342	544.456676769532	1
0	4351	545.956676769532	1
0	4373	548.626293905984	1
0	4409	554.435784769425	1
0	4447	558.276097467097	1
0	4472	562.935442558095	1
0	4491	564.435442558095	1
0	4497	565.935442558095	1
0	4506	567.472914332904	1
0	4572	580.700411297075	1
0	4659	598.122696226694	1
0	4675	599.622696226694	1
0	4727	603.858144701653	1
0	4743	605.358144701653	1
0	4766	608.069585401877	1
0	4777	609.569585401877	1
0	4788	611.069585401877	1
0	4809	613.50120137821	1
0	4828	615.00120137821	1
0	4848	616.50120137821	1
0	4865	618.889228867008	1
0	4892	622.870521412023	1
0	4904	624.370521412023	1
0	4939	630.824616582277	1
0	4953	632.324616582277	1
0	4961	633.824616582277	1
0	4972	635.324616582277	1
0	4981	636.824616582277	1
0	4994	638.876441039873	1
0	5038	643.320773736119	1
0	5049	644.820773736119	1
0	5088	649.418210936669	1
0	5225	665.932515023356	1
0	5275	675.406545147021	1
0	5287	677.621359531342	1
0	5298	679.948481705778	1
0	5327	684.014072039302	1
0	5364	689.748556351056	1
0	5386	695.371526104834	1
0	5396	697.001650869757	1
0	5404	698.501650869757	1
0	5434	705.183726095515	1
0	5494	711.010024046304	1
0	5518	712.510024046304	1
0	5527	714.010024046304	1
0	5541	715.510024046304	1
0	5550	717.010024046304	1
0	5553	718.510024046304	1
0	5571	720.017080191564	1
0	5585	721.517080191564	1
0	5602	723.017080191564	1
0	5644	729.684359796369	1
0	5695	733.937329192592	1
0	5707	735.437329192592	1
0	5748	741.793589466482	1
0	5771	745.150240804749	1
0	5844	755.867402404409	1
0	5880	762.931490778147	1
0	5901	765.351006871619	1
0	5910	766.851006871619	1
0	5926	768.351006871619	1
0	5940	769.851006871619	1
0	5951	771.38336641675	1
0	5967	772.88336641675	1
0	5978	774.38336641675	1
0	5987	775.88336641675	1
0	5995	777.38336641675	1
0	6006	778.88336641675	1
0	6014	780.38336641675	1
0	6025	781.88336641675	1
0	6039	783.38336641675	1
0	6050	784.88336641675	1
0	6061	786.38336641675	1
0	6080	789.68889465121	1
0	6110	792.274359286055	1
0	6189	805.063693716006	1
0	6200	807.475226751738	1
0	6232	815.20205262732	1
0	6249	818.816321182887	1
0	6270	821.479565179974	1
0	6286	822.979565179974	1
0	6305	824.479565179974	1
0	6317	825.979565179974	1
0	6381	833.538700790717	1
0	6394	835.038700790717	1
0	6424	839.295794163069	1
0	6457	841.967705670735	1
0	6496	846.976498155987	1
0	6518	851.522180807875	1
0	6531	853.022180807875	1
0	6600	861.073248154255	1
0	6623	864.730005638395	1
0	6642	866.240916204727	1
0	6729	875.652446625684	1
0	6746	878.753356753924	1
0	6837	893.782536364722	1
0	6848	896.360541744774	1
0	6856	897.860541744774	1
0	6875	900.289056071533	1
0	6913	904.237569054898	1
0	6946	907.310931270187	1
0	6971	909.433366133495	1
0	6985	910.933366133495	1
0	6991	912.433366133495	1
0	7009	913.933366133495	1
0	7026	915.433366133495	1
0	7059	918.578643809799	1
0	7086	920.825334279946	1
0	7095	922.325334279946	1
0	7109	923.825334279946	1
0	7178	933.668092619226	1
0	7195	935.52607420518	1
0	7222	940.662304943475	1
0	7280	948.562709775046	1
0	7296	950.062709775046	1
0	7307	951.562709775046	1
0	7318	953.062709775046	1
0	7386	962.120399487594	1
0	7395	963.620399487594	1
0	7406	965.120399487594	1
0	7425	967.52800550161	1
0	7459	971.795816919305	1
0	7465	973.295816919305	1
0	7530	982.657637893056	1
0	7563	988.704438875088	1
0	7619	997.010329535492	1
0	7634	999.886696979882	1
0	7645	1001.386696979882	1
0	7654	1002.886696979882	1
0	7662	1005.298334111294	1
0	7674	1009.236109884671	1
0	7696	1012.594244546415	1
0	7711	1015.148458769961	1
0	7725	1016.648458769961	1
0	7736	1018.148458769961	1
0	7742	1019.648458769961	1
0	7816	1035.180223259285	1
0	7838	1038.388089055691	1
0	7865	1041.372511226453	1
0	7882	1043.422270633549	1
0	7893	1045.865836761218	1
0	7942	1053.391738419745	1
0	7956	1054.891738419745	1
0	7967	1056.391738419745	1
0	8000	1060.040374402534	1
0	8053	1067.856769632977	1
0	8086	1072.030032502233	1
0	8113	1078.571490284015	1
0	8124	1081.176915324906	1
0	8147	1086.697351487534	1
0	8163	1088.745953735121	1
0	8206	1094.06049955404	1
0	8215	1095.56049955404	1
0	8275	1106.34380147722	1
0	8294	1107.885930944894	1
0	8308	1109.385930944894	1
0	8319	1110.885930944894	1
0	8333	1114.45491642887	1
0	8354	1117.683718413363	1
0	8376	1119.183718413363	1
0	8393	1120.683718413363	1
0	8402	1122.183718413363	1
0	8635	1153.909267643661	1
0	8665	1156.1142823708	1
0	8684	1157.6142823708	1
0	8696	1159.1142823708	1
0	8718	1163.452918049813	1
0	8734	1165.57707058553	1
0	8761	1167.24853015858	1
0	8775	1168.74853015858	1
0	8789	1170.24853015858	1
0	8803	1171.74853015858	1
0	8834	1173.974462655812	1
0	8852	1175.474462655812	1
0	8879	1177.089372099414	1
0	8899	1178.589372099414	1
0	8908	1180.089372099414	1
0	8967	1184.951586652622	1
0	8989	1186.451586652622	1
0	9051	1192.698980038518	1
0	9086	1197.439969856968	1
0	9135	1205.190767521706	1
0	9155	1208.78958337368	1
0	9166	1210.28958337368	1
0	9284	1229.034315228349	1
0	9328	1234.451416369881	1
0	9339	1235.951416369881	1
0	9345	1237.451416369881	1
0	9358	1238.951416369881	1
0	9377	1240.451416369881	1
0	9394	1242.149762873598	1
0	9411	1244.965619144674	1
0	9414	1246.465619144674	1
0	9461	1254.197831775661	1
0	9538	1262.846101364666	1
0	9544	1264.346101364666	1
0	9571	1268.915690987222	1
0	9579	1270.415690987222	1
0	9603	1277.545974058637	1
0	9617	1279.045974058637	1
0	9636	1282.360038631611	1
0	9687	1289.606141545536	1
0	9697	1292.612527129863	1
0	9710	1294.112527129863	1
0	9741	1298.550693922066	1
0	9758	1300.050693922066	1
0	9776	1301.550693922066	1
0	9790	1303.050693922066	1
0	9823	1307.843168645876	1
0	9837	1309.343168645876	1
0	9867	1313.203662763017	1
0	9895	1315.940463692303	1
0	9946	1320.072351046436	1
0	9966	1321.765612434008	1
0	9975	1323.265612434008	1
0	9997	1326.601510843052	1
0	10013	1328.153798274531	1
0	10019	1329.653798274531	1
0	10028	1331.409172878696	1
0	10070	1335.352883462316	1
0	10095	1337.739673323579	1
0	10120	1340.252851167833	1
0	10131	1341.752851167833	1
0	10137	1343.252851167833	1
0	10183	1348.8058533153	1
0	10312	1362.129207972053	1
0	10334	1364.140633307543	1
0	10343	1365.640633307543	1
0	10376	1371.992168347715	1
0	10417	1376.13356343159	1
0	10431	1377.63356343159	1
0	10442	1379.13356343159	1
0	10455	1380.63356343159	1
0	10464	1382.13356343159	1
0	10482	1383.63356343159	1
0	10494	1385.13356343159	1
0	10522	1388.49713073931	1
0	10525	1389.99713073931	1
0	10555	1391.935586700018	1
0	10564	1393.435586700018	1
0	10607	1397.597621319641	1
0	10626	1399.527150111998	1
0	10648	1401.471958024338	1
0	10677	1407.016115489423	1
0	10734	1416.902823191205	1
0	10755	1418.462365192456	1
0	10840	1425.649339354166	1
0	10865	1427.904550207239	1
0	10877	1429.404550207239	1
0	10904	1432.074789825197	1
0	11000	1444.974206538027	1
0	11028	1448.213192245461	1
0	11042	1449.713192245461	1
0	11051	1451.213192245461	1
0	11083	1455.130825140488	1
0	11127	1463.002257110323	1
0	11149	1467.398889363829	1
0	11177	1473.649120750258	1
0	11188	1475.149120750258	1
0	11201	1476.649120750258	1
0	11255	1482.349836324193	1
0	11302	1487.068011654639	1
0	11322	1488.568011654639	1
0	11333	1490.068011654639	1
0	11368	1498.105589604957	1
0	11382	1499.605589604957	1
0	11456	1507.338441239041	1
0	11490	1510.690424956293	1
0	11499	1512.190424956293	1
0	11520	1514.544569781493	1
0	11557	1518.750510583424	1
0	11587	1521.141789683334	1
0	11621	1524.068713337374	1
0	11638	1525.568713337374	1
0	11663	1528.191040323223	1
0	11679	1529.691040323223	1
0	11699	1534.189346748431	1
0	11715	1535.972393351567	1
0	11721	1537.472393351567	1
0	11737	1538.984621192441	1
0	11748	1540.484621192441	1
0	11832	1549.244982161607	1
0	11841	1550.744982161607	1
0	11850	1552.244982161607	1
0	11870	1553.775785721915	1
0	11892	1556.953650110864	1
0	12001	1569.348494897764	1
0	12020	1570.848494897764	1
0	12029	1572.348494897764	1
0	12037	1573.848494897764	1
0	12113	1583.920099874462	1
0	12122	1585.420099874462	1
0	12166	1591.333798406073	1
0	12203	1597.203476733074	1
0	12270	1605.372939455579	1
0	12294	1608.399702946504	1
0	12318	1613.31967718668	1
0	12442	1634.005993214395	1
0	12455	1635.505993214395	1
0	12490	1639.93687152081	1
0	12507	1641.43687152081	1
0	12521	1642.93687152081	1
0	12545	1644.859415113546	1
0	12650	1660.084444593979	1
0	12669	1661.584444593979	1
0	12688	1663.084444593979	1
0	12710	1664.584444593979	1
0	12719	1666.084444593979	1
0	12782	1675.990446907933	1
0	12796	1677.490446907933	1
0	12820	1680.087391155797	1
0	12837	1681.587391155797	1
0	12882	1687.70901641992	1
0	12944	1695.82780470438	1
0	12977	1698.372300524293	1
0	12999	1699.872300524293	1
0	13019	1702.1640139527	1
0	13047	1707.170664715889	1
0	13070	1708.965236023703	1
0	13095	1710.465236023703	1
0	13114	1711.965236023703	1
0	13133	1713.465236023703	1
0	13218	1723.707762732321	1
0	13245	1727.87720871838	1
0	13282	1732.40748138265	1
0	13296	1733.90748138265	1
0	13350	1741.738545328813	1
0	13372	1743.238545328813	1
0	13389	1744.738545328813	1
0	13403	1746.238545328813	1
0	13437	1749.914941657643	1
0	13503	1757.444722471938	1
0	13522	1759.693236481518	1
0	13585	1770.297726098978	1
0	13599	1771.797726098978	1
0	13610	1773.297726098978	1
0	13635	1777.631197755681	1
0	13657	1781.632374840678	1
0	13675	1783.132374840678	1
0	13689	1784.632374840678	1
0	13711	1786.132374840678	1
0	13723	1787.632374840678	1
0	13862	1804.93949323384	1
0	13876	1806.43949323384	1
0	13890	1807.93949323384	1
0	13901	1809.43949323384	1
0	13917	1810.93949323384	1
0	13931	1812.43949323384	1
0	13940	1813.93949323384	1
0	13951	1815.43949323384	1
0	13971	1817.999149215053	1
0	13989	1819.499149215053	1
0	14003	1820.999149215053	1
0	14039	1826.57485719323	1
0	14097	1833.192152942004	1
0	14140	1837.3663049507	1
0	14157	1838.8663049507	1
0	14171	1841.239744577786	1
0	14196	1844.625657738157	1
0	14230	1851.555364325637	1
0	14295	1858.640320558339	1
0	14306	1860.140320558339	1
0	14383	1871.398681018175	1
0	14519	1887.480310981551	1
0	14549	1890.364719737697	1
0	14571	1891.864719737697	1
0	14624	1896.287652159618	1
0	14657	1899.249757168963	1
0	14678	1902.011536035428	1
0	14713	1904.809572779252	1
0	14730	1907.223261018558	1
0	14746	1910.400696747061	1
0	14806	1917.418185243641	1
0	14894	1929.223523317684	1
0	14952	1937.127642540816	1
0	15026	1950.02467178339	1
0	15053	1952.901706384854	1
0	15077	1954.401706384854	1
0	15097	1956.966511343688	1
0	15117	1958.495307829268	1
0	15141	1960.356474027009	1
0	15163	1962.085811844363	1
0	15177	1963.585811844363	1
0	15197	1967.025742435898	1
0	15205	1968.525742435898	1
0	15266	1974.4275782371	1
0	15281	1975.9275782371	1
0	15298	1977.4275782371	1
0	15399	1986.871631380824	1
0	15430	1990.618268165414	1
0	15472	1995.913330477381	1
0	15491	1997.413330477381	1
0	15505	2001.621787567703	1
0	15539	2006.109572662829	1
0	15549	2007.669966069644	1
0	15576	2012.805172393126	1
0	15585	2014.305172393126	1
0	15594	2016.260714265696	1
0	15736	2033.545675683487	1
0	15758	2036.631421265636	1
0	15835	2049.392983669314	1
0	15862	2053.18594498891	1
0	15906	2059.114050448847	1
0	16001	2073.846437294402	1
0	16011	2075.963154904259	1
0	16019	2077.463154904259	1
0	16044	2079.526809587147	1
0	16084	2082.122313420968	1
0	16101	2083.622313420968	1
0	16122	2085.122313420968	1
0	16137	2086.622313420968	1
0	16161	2088.122313420968	1
0	16175	2089.622313420968	1
0	16245	2100.823664604094	1
0	16277	2103.121012274839	1
0	16297	2105.218661806349	1
0	16313	2106.718661806349	1
0	16341	2110.437990414315	1
0	16404	2116.295638546945	1
0	16416	2117.795638546945	1
0	16429	2119.32570447037	1
0	16442	2120.82570447037	1
0	16462	2122.943922697074	1
0	16511	2130.426026534576	1
0	16527	2131.926026534576	1
0	16551	2133.426026534576	1
0	16578	2134.926026534576	1
0	16622	2137.812926427937	1
0	16647	2139.770616766326	1
0	16669	2141.270616766326	1
0	16721	2145.202411125939	1
0	16752	2147.72305731149	1
0	16785	2151.704656259357	1
0	16807	2153.204656259357	1
0	16837	2154.841131533844	1
0	16857	2156.341131533844	1
0	16871	2157.841131533844	1
0	16907	2165.996073652441	1
0	16941	2171.817926453124	1
0	16951	2173.317926453124	1
0	16965	2174.817926453124	1
0	17061	2187.116755895221	1
0	17082	2188.616755895221	1
0	17104	2190.116755895221	1
0	17121	2191.616755895221	1
0	17135	2193.116755895221	1
0	17152	2194.616755895221	1
0	17163	2196.116755895221	1
0	17210	2202.819741324798	1
0	17227	2205.493426545379	1
0	17281	2212.907279236555	1
0	17297	2214.407279236555	1
0	17303	2215.907279236555	1
0	17316	2217.407279236555	1
0	17328	2218.907279236555	1
0	17331	2220.407279236555	1
0	17339	2221.907279236555	1
0	17345	2223.407279236555	1
0	17364	2225.427740435068	1
0	17462	2235.726135800847	1
0	17479	2237.226135800847	1
0	17528	2244.384315703258	1
0	17555	2245.884315703258	1
0	17570	2247.384315703258	1
0	17594	2250.78278585202	1
0	17606	2252.28278585202	1
0	17634	2255.899622549285	1
0	17656	2259.767278192044	1
0	17672	2263.452458726199	1
0	17675	2264.952458726199	1
0	17688	2266.589161445056	1
0	17697	2268.089161445056	1
0	17722	2273.074115044612	1
0	17738	2274.574115044612	1
0	17776	2277.801923327924	1
0	17792	2279.301923327924	1
0	17801	2280.801923327924	1
0	17831	2283.274626560525	1
0	17847	2284.774626560525	1
0	17864	2286.274626560525	1
0	17875	2287.774626560525	1
0	17914	2292.207951065991	1
0	17926	2295.229088775879	1
0	18030	2305.714322407391	1
0	18043	2308.258136057835	1
0	18049	2309.758136057835	1
0	18092	2315.505033157439	1
0	18104	2317.005033157439	1
0	18118	2319.080880043664	1
0	18131	2320.580880043664	1
0	18216	2332.293127836549	1
0	18222	2333.793127836549	1
0	18230	2335.293127836549	1
0	18241	2336.793127836549	1
0	18287	2342.926230663236	1
0	18310	2347.647446608708	1
0	18322	2351.895103729552	1
0	18353	2354.937431235938	1
0	18378	2356.463673162546	1
0	18452	2365.894355762369	1
0	18484	2371.47739658915	1
0	18508	2376.652720913836	1
0	18520	2378.278814908902	1
0	18541	2383.534596628562	1
0	18553	2387.112393516747	1
0	18563	2389.023033912755	1
0	18629	2395.320724172182	1
0	18645	2396.820724172182	1
0	18656	2398.320724172182	1
0	18672	2399.820724172182	1
0	18681	2401.320724172182	1
0	18706	2404.836471790844	1
0	18746	2407.584245712772	1
0	18763	2409.084245712772	1
0	18874	2420.596428037672	1
0	18885	2422.096428037672	1
0	18893	2424.381782121471	1
0	18997	2435.467004933741	1
0	19035	2439.803075266955	1
0	19056	2441.890790906635	1
0	19112	2449.19427748135	1
0	19129	2450.69427748135	1
0	19143	2452.19427748135	1
0	19200	2456.903497799636	1
0	19278	2466.077216047449	1
0	19316	2471.78099660704	1
0	19346	2474.746955801987	1
0	19397	2484.266152827056	1
0	19416	2486.837039943033	1
0	19470	2494.989753688098	1
0	19514	2502.113480998955	1
0	19533	2503.613480998955	1
0	19580	2508.798400650806	1
0	19610	2512.025562993616	1
0	19624	2513.525562993616	1
0	19712	2524.558863589934	1
0	19721	2526.058863589934	1
0	19729	2527.934898486069	1
0	19766	2533.949952981267	1
0	19788	2535.449952981267	1
0	19817	2538.42123151118	1
0	19836	2541.427779164761	1
0	19873	2546.004762997498	1
0	19921	2557.673104944305	1
0	19935	2559.173104944305	1
0	19957	2562.206285595546	1
0	20077	2572.972650881992	1
0	20133	2580.700494173426	1
0	20223	2595.786395976597	1
0	20232	2597.286395976597	1
0	20307	2609.99328836522	1
0	20325	2611.49328836522	1
0	20342	2612.99328836522	1
0	20423	2623.725555961594	1
0	20433	2625.682898618293	1
0	20455	2629.324035536151	1
0	20472	2631.336561888561	1
0	20488	2634.247559143608	1
0	20567	2641.350197472161	1
0	20586	2642.850197472161	1
0	20598	2644.350197472161	1
0	20614	2646.344021199659	1
0	20630	2647.844021199659	1
0	20639	2649.344021199659	1
0	20647	2650.844021199659	1
0	20658	2652.344021199659	1
0	20677	2653.844021199659	1
0	20686	2655.344021199659	1
0	20713	2658.256955788708	1
0	20778	2664.037699037472	1
0	20809	2666.79890775402	1
0	20855	2670.08896723971	1
0	20872	2671.58896723971	1
0	20911	2675.772256975624	1
0	20933	2679.046624214878	1
0	20947	2680.546624214878	1
0	20958	2682.046624214878	1
0	20964	2683.546624214878	1
0	20973	2687.045151214715	1
0	21005	2690.686651699197	1
0	21026	2693.70020940967	1
0	21107	2703.561777348367	1
0	21120	2705.061777348367	1
0	21134	2706.561777348367	1
0	21158	2709.435637871045	1
0	21175	2710.935637871045	1
0	21194	2712.435637871045	1
0	21214	2714.842328841322	1
0	21217	2716.342328841322	1
0	21236	2719.870075501969	1
0	21310	2731.141710964816	1
0	21336	2735.004697790708	1
0	21346	2737.105299007941	1
0	21367	2738.910249246555	1
0	21386	2740.410249246555	1
0	21439	2745.719365387528	1
0	21453	2747.219365387528	1
0	21477	2749.514872011284	1
0	21521	2754.51866564732	1
0	21562	2756.955399309598	1
0	21584	2758.620874392043	1
0	21599	2760.120874392043	1
0	21632	2767.71170387882	1
0	21649	2769.545029008843	1
0	21662	2771.045029008843	1
0	21668	2772.545029008843	1
0	21682	2774.903905156256	1
0	21705	2776.403905156256	1
0	21799	2786.484324664394	1
0	21820	2789.704709191629	1
0	21868	2797.413888866094	1
0	21995	2815.428663921953	1
0	22012	2818.191220553128	1
0	22040	2821.754748752828	1
0	22073	2825.750995785513	1
0	22132	2832.600986810392	1
0	22154	2834.314384464514	1
0	22182	2836.807269443145	1
0	22198	2838.450406205721	1
0	22220	2841.81274499096	1
0	22231	2843.31274499096	1
0	22245	2844.81274499096	1
0	22270	2850.131251586927	1
0	22286	2851.969568758855	1
0	22359	2856.798504234097	1
0	22371	2858.298504234097	1
0	22421	2864.105718087312	1
0	22459	2867.365937364724	1
0	22473	2868.865937364724	1
0	22482	2870.365937364724	1
0	22496	2873.079273769389	1
0	22522	2875.21735051316	1
0	22549	2876.71735051316	1
0	22566	2878.21735051316	1
0	22585	2879.71735051316	1
0	22632	2884.41264945654	1
0	22638	2885.91264945654	1
0	22660	2887.555635276749	1
0	22695	2890.553676619994	1
0	22735	2894.194178926274	1
0	22839	2903.60037985748	1
0	22863	2906.148251917349	1
0	22880	2907.648251917349	1
0	22946	2913.069976514392	1
0	22979	2916.61369427696	1
0	22985	2918.11369427696	1
0	23029	2924.30770970346	1
0	23050	2926.83568962421	1
0	23064	2928.33568962421	1
0	23082	2930.759987054591	1
0	23106	2934.951332565574	1
0	23129	2940.93414449308	1
0	23149	2943.917252343247	1
0	23166	2945.417252343247	1
0	23219	2953.00460508796	1
0	23239	2956.058903534575	1
0	23255	2958.133249933673	1
0	23292	2963.625476979314	1
0	23309	2965.125476979314	1
0	23323	2966.625476979314	1
0	23397	2983.113847812161	1
0	23427	2986.767449768976	1
0	23467	2990.144407342476	1
0	23504	2992.913487908314	1
0	23521	2995.729172777288	1
0	23541	2997.663144821949	1
0	23554	2999.163144821949	1
0	23560	3000.663144821949	1
0	23574	3002.186376138764	1
0	23587	3003.686376138764	1
0	23617	3010.197080626601	1
0	23634	3012.070160416123	1
0	23642	3013.570160416123	1
0	23648	3015.070160416123	1
0	23661	3017.476333753794	1
0	23678	3020.158120450527	1
0	23702	3023.953008288458	1
0	23716	3025.453008288458	1
0	23725	3026.953008288458	1
0	23733	3028.557018868095	1
0	23796	3039.024109898382	1
0	23823	3042.331828429754	1
0	23881	3050.267187955046	1
0	23937	3062.162243886012	1
0	23975	3065.684216361368	1
0	23992	3067.184216361368	1
0	23998	3068.684216361368	1
0	24013	3070.673634784451	1
0	24032	3072.173634784451	1
0	24064	3078.886158160583	1
0	24107	3086.543306611382	1
0	24134	3088.625434120165	1
0	24157	3092.309657224257	1
0	24170	3093.809657224257	1
0	24211	3099.083798853783	1
0	24261	3103.973408899598	1
0	24280	3105.473408899598	1
0	24332	3112.762851125938	1
0	24346	3114.262851125938	1
0	24362	3115.762851125938	1
0	24371	3117.262851125938	1
0	24404	3122.303393420213	1
0	24498	3137.466390494479	1
0	24509	3138.966390494479	1
0	24520	3140.466390494479	1
0	24563	3145.986341651807	1
0	24599	3150.589452667717	1
0	24656	3160.093465834572	1
0	24665	3161.593465834572	1
0	24710	3166.031522555222	1
0	24745	3171.473823355019	1
0	24787	3173.384083120215	1
0	24799	3174.884083120215	1
0	24813	3176.384083120215	1
0	24887	3186.540577078005	1
0	24899	3188.040577078005	1
0	24915	3189.768817817534	1
0	24998	3199.930850144871	1
0	25055	3206.234317165207	1
0	25064	3207.734317165207	1
0	25082	3209.234317165207	1
0	25178	3217.28083590983	1
0	25214	3219.443222598444	1
0	25256	3224.933691491882	1
0	25270	3226.433691491882	1
0	25291	3227.933691491882	1
0	25300	3229.433691491882	1
0	25308	3230.933691491882	1
0	25322	3232.433691491882	1
0	25338	3233.933691491882	1
0	25399	3244.62926378671	1
0	25405	3246.12926378671	1
0	25423	3247.62926378671	1
0	25437	3249.12926378671	1
0	25456	3250.62926378671	1
0	25473	3252.12926378671	1
0	25517	3255.169080386972	1
0	25658	3272.235945910125	1
0	25694	3276.938399756507	1
0	25712	3278.438399756507	1
0	25724	3279.938399756507	1
0	25773	3285.978441752487	1
0	25781	3287.478441752487	1
0	25800	3288.978441752487	1
0	25809	3290.478441752487	1
0	25825	3291.978441752487	1
0	25839	3293.478441752487	1
0	25848	3294.978441752487	1
0	25866	3296.63646847852	1
0	25880	3298.13646847852	1
0	25886	3299.63646847852	1
0	25902	3301.13646847852	1
0	25916	3302.63646847852	1
0	25922	3304.13646847852	1
0	25930	3305.63646847852	1
0	25950	3308.362010763154	1
0	25972	3310.618522728245	1
0	26043	3323.747652918455	1
0	26059	3326.77997086612	1
0	26080	3328.27997086612	1
0	26097	3329.77997086612	1
0	26124	3331.27997086612	1
0	26143	3332.77997086612	1
0	26158	3334.27997086612	1
0	26169	3335.77997086612	1
0	26180	3337.27997086612	1
0	26203	3339.225015775585	1
0	26224	3341.944788363519	1
0	26255	3349.329172253675	1
0	26268	3350.829172253675	1
0	26306	3355.40112235028	1
0	26321	3356.90112235028	1
0	26334	3358.528197267517	1
0	26345	3360.028197267517	1
0	26373	3364.243336478996	1
0	26416	3368.319215328847	1
0	26455	3374.068841303119	1
0	26528	3386.646580178391	1
0	26609	3404.575806303073	1
0	26631	3408.14044717041	1
0	26645	3409.64044717041	1
0	26664	3412.818131624568	1
0	26716	3417.455599846513	1
0	26757	3420.422885508065	1
0	26780	3423.226501919293	1
0	26793	3424.726501919293	1
0	26829	3429.185464279065	1
0	26883	3433.616614428444	1
0	26911	3436.852672431824	1
0	26923	3438.352672431824	1
0	27001	3448.708354378003	1
0	27016	3450.619744522747	1
0	27030	3452.119744522747	1
0	27133	3464.460122610932	1
0	27155	3466.306330987068	1
0	27176	3468.281268229009	1
0	27189	3469.781268229009	1
0	27203	3471.281268229009	1
0	27219	3472.781268229009	1
0	27241	3474.281268229009	1
0	27257	3475.781268229009	1
0	27276	3477.281268229009	1
0	27295	3478.781268229009	1
0	27304	3480.281268229009	1
0	27313	3481.781268229009	1
0	27324	3483.281268229009	1
0	27330	3484.781268229009	1
0	27378	3489.178500777	1
0	27395	3490.678500777	1
0	27417	3492.178500777	1
0	27432	3493.678500777	1
0	27460	3499.858391380501	1
0	27479	3502.738124571477	1
0	27485	3504.238124571477	1
0	27511	3508.500937892944	1
0	27522	3510.000937892944	1
0	27525	3511.500937892944	1
0	27538	3513.000937892944	1
0	27555	3514.500937892944	1
0	27561	3516.000937892944	1
0	27574	3517.500937892944	1
0	27588	3519.000937892944	1
0	27599	3520.500937892944	1
0	27628	3526.681887168242	1
0	27666	3535.064765451743	1
0	27696	3539.503528433266	1
0	27797	3549.469083851208	1
0	27830	3552.741007574482	1
0	27864	3556.84434453714	1
0	27877	3558.34434453714	1
0	27896	3560.754926753544	1
0	27913	3562.275020161052	1
0	27953	3564.943926057815	1
0	27990	3570.695453600252	1
0	28040	3578.803880185754	1
0	28051	3580.303880185754	1
0	28072	3582.580784638834	1
0	28094	3585.327256422001	1
0	28105	3586.827256422001	1
0	28111	3588.327256422001	1
0	28124	3589.827256422001	1
0	28148	3591.327256422001	1
0	28173	3592.827256422001	1
0	28185	3594.327256422001	1
0	28196	3595.827256422001	1
0	28226	3600.286589187881	1
1	7	11.5	1
1	44	15.421359935723	1
1	127	30.147721635448	1
1	154	33.719781482433	1
1	196	37.985943385953	1
1	213	40.790358229	1
1	253	45.695742815164	1
1	259	47.195742815164	1
1	298	54.187852904546	1
1	303	55.687852904546	1
1	306	57.187852904546	1
1	341	62.636042967276	1
1	359	64.795153065488	1
1	379	66.631087332249	1
1	395	68.131087332249	1
1	415	69.631087332249	1
1	431	71.131087332249	1
1	453	72.631087332249	1
1	475	74.131087332249	1
1	487	75.631087332249	1
1	542	79.960061537882	1
1	556	81.985326621333	1
1	584	84.665162195315	1
1	601	87.694986865805	1
1	619	91.306845414545	1
1	666	98.344593211546	1
1	677	100.696486573388	1