version 3
run k_MM1_rand-13-20221127-16:03:21-5740
attr configname k_MM1_rand
attr datetime 20221127-16:03:21
attr datetimef 20221127-160321
attr experiment k_MM1_rand
attr inifile omnetpp.ini
attr iterationvars "$time=1.5, $num=5, $0=45732, $1=35463, $2=67563"
attr iterationvarsd time=1.5/num=5/45732/35463/67563
attr iterationvarsf time=1.5,num=5,45732,35463,67563-
attr measurement "$time=1.5, $num=5, $0=45732, $1=35463, $2=67563"
attr network randkMM1
attr processid 5740
attr repetition 1
attr replication #1
attr resultdir results
attr runnumber 13
attr seedset 13
itervar num 5
itervar time 1.5
config description "MM1 module k-times random"
config network randkMM1
config **.source.interArrivalTime "truncnormal(0.5s, 1.5s)"
config **.serviceTime 1.5s
config **.c 5
config **.capacity 10000
config record-eventlog false
config **.scalar-recording true
config **.vector-recording true
config repeat 4
config seed-1-mt 45732
config seed-2-mt 35463
config seed-3-mt 67563
config output-vector-file k_MM1_rand-5-1.5-results/1.vec
config output-scalar-file k_MM1_rand-5-1.5-results/1.sca

vector 0 randkMM1.mm1[4] util:vector ETV
attr interpolationmode none
attr recordingmode vector
attr title resources
vector 1 randkMM1.mm1[1] util:vector ETV
attr interpolationmode none
attr recordingmode vector
attr title resources
vector 2 randkMM1.mm1[0] util:vector ETV
attr interpolationmode none
attr recordingmode vector
attr title resources
vector 3 randkMM1.mm1[2] util:vector ETV
attr interpolationmode none
attr recordingmode vector
attr title resources
vector 4 randkMM1.mm1[1] queueLength:vector ETV
attr interpolationmode none
attr recordingmode vector
attr title "queue length"
vector 5 randkMM1.mm1[3] queueLength:vector ETV
attr interpolationmode none
attr recordingmode vector
attr title "queue length"
vector 6 randkMM1.mm1[3] util:vector ETV
attr interpolationmode none
attr recordingmode vector
attr title resources
vector 7 randkMM1.mm1[4] queueLength:vector ETV
attr interpolationmode none
attr recordingmode vector
attr title "queue length"
vector 8 randkMM1.mm1[0] queueLength:vector ETV
attr interpolationmode none
attr recordingmode vector
attr title "queue length"
vector 9 randkMM1.mm1[2] queueLength:vector ETV
attr interpolationmode none
attr recordingmode vector
attr title "queue length"
0	11	11.5	1
0	71	20.009515039775	1
0	90	21.509515039775	1
0	140	25.577436066942	1
0	159	27.077436066942	1
0	171	28.577436066942	1
0	203	31.510627783252	1
0	226	33.424570983254	1
0	269	36.983085520489	1
0	304	40.820749382948	1
0	321	42.320749382948	1
0	341	44.284083481875	1
0	352	45.784083481875	1
0	361	47.284083481875	1
0	447	59.864920025275	1
0	490	66.687504823744	1
0	506	68.244017886693	1
0	535	73.18270582904	1
0	550	77.418281920465	1
0	568	79.47901231443	1
0	583	81.009120917756	1
0	602	82.509120917756	1
0	627	84.637342844966	1
0	641	86.137342844966	1
0	691	93.139791239917	1
0	712	94.714886328196	1
0	739	96.214886328196	1
0	756	97.714886328196	1
0	765	99.214886328196	1
0	778	100.714886328196	1
0	809	106.416650130213	1
0	831	108.785215542554	1
0	839	110.285215542554	1
0	847	111.785215542554	1
0	858	113.285215542554	1
0	872	114.785215542554	1
0	878	116.285215542554	1
0	908	119.748334168453	1
0	924	121.248334168453	1
0	1034	130.387084263307	1
0	1066	132.719700605871	1
0	1092	137.322123451465	1
0	1106	138.842862144772	1
0	1144	146.788807731995	1
0	1182	153.36327955993	1
0	1193	154.86327955993	1
0	1207	156.36327955993	1
0	1226	157.86327955993	1
0	1276	164.413495670555	1
0	1295	165.945380862231	1
0	1307	167.445380862231	1
0	1386	176.046361024815	1
0	1475	188.129018658056	1
0	1488	189.629018658056	1
0	1499	191.129018658056	1
0	1522	194.742941447976	1
0	1608	204.235951960541	1
0	1708	218.106496764825	1
0	1787	225.037844255828	1
0	1804	226.537844255828	1
0	1823	228.527880759011	1
0	1855	232.612470194038	1
0	1866	236.279029065536	1
0	1882	238.397939468601	1
0	1895	239.897939468601	1
0	1914	241.603200655289	1
0	1925	243.103200655289	1
0	1945	245.145666694782	1
0	1992	250.783690728334	1
0	2021	253.526919111856	1
0	2040	255.026919111856	1
0	2052	256.526919111856	1
0	2060	258.026919111856	1
0	2075	260.884073257405	1
0	2151	269.57808539192	1
0	2159	271.07808539192	1
0	2203	278.781633022249	1
0	2240	283.405609473	1
0	2251	284.972777931741	1
0	2303	291.391637294778	1
0	2317	292.891637294778	1
0	2334	294.391637294778	1
0	2345	295.891637294778	1
0	2359	297.391637294778	1
0	2365	298.891637294778	1
0	2373	300.391637294778	1
0	2382	301.891637294778	1
0	2390	303.391637294778	1
0	2450	310.369215329746	1
0	2494	314.01759530989	1
0	2552	320.095302331467	1
0	2574	321.813348796698	1
0	2602	326.900745273495	1
0	2651	335.034779879727	1
0	2657	336.534779879727	1
0	2670	338.034779879727	1
0	2720	345.445671714567	1
0	2757	352.926027310662	1
0	2801	362.948685676483	1
0	2833	366.623754001095	1
0	2841	368.123754001095	1
0	2852	369.623754001095	1
0	2884	372.747440553615	1
0	2893	374.247440553615	1
0	2904	375.747440553615	1
0	2910	377.247440553615	1
0	2918	378.747440553615	1
0	2992	391.407052053625	1
0	3041	396.596184252017	1
0	3050	398.096184252017	1
0	3061	399.596184252017	1
0	3064	401.096184252017	1
0	3072	402.596184252017	1
0	3107	405.63853923009	1
0	3116	407.13853923009	1
0	3124	408.63853923009	1
0	3135	410.13853923009	1
0	3151	411.63853923009	1
0	3168	413.13853923009	1
0	3182	414.63853923009	1
0	3188	416.13853923009	1
0	3264	428.627977264152	1
0	3278	430.127977264152	1
0	3295	434.82442902246	1
0	3327	437.580609930312	1
0	3356	439.080609930312	1
0	3400	445.904445274355	1
0	3415	447.404445274355	1
0	3429	448.904445274355	1
0	3435	450.404445274355	1
0	3441	451.904445274355	1
0	3460	455.730981974044	1
0	3504	461.776340495481	1
0	3512	463.276340495481	1
0	3523	464.776340495481	1
0	3539	466.276340495481	1
0	3563	467.776340495481	1
0	3577	469.276340495481	1
0	3623	472.380244868964	1
0	3643	473.880244868964	1
0	3672	477.651039270273	1
0	3709	481.061022731793	1
0	3745	485.720911837197	1
0	3767	487.854788760768	1
0	3773	489.354788760768	1
0	3784	490.854788760768	1
0	3803	492.354788760768	1
0	3817	493.854788760768	1
0	3834	497.866919328029	1
0	3879	502.346057429875	1
0	3888	503.846057429875	1
0	3907	505.346057429875	1
0	3946	508.947785356147	1
0	3977	513.69768408171	1
0	4007	519.293308391192	1
0	4021	522.852109635287	1
0	4024	524.352109635287	1
0	4048	526.377020377277	1
0	4117	533.73071955312	1
0	4123	535.23071955312	1
0	4137	537.569258096877	1
0	4163	540.923925176089	1
0	4180	542.423925176089	1
0	4220	550.655549060145	1
0	4262	554.831965381383	1
0	4325	560.407035691908	1
0	4342	561.907035691908	1
0	4351	563.407035691908	1
0	4383	566.8761498202	1
0	4411	570.928532188399	1
0	4450	577.72147537827	1
0	4466	579.22147537827	1
0	4505	583.264682490645	1
0	4539	585.362621457432	1
0	4559	586.862621457432	1
0	4603	590.940669600731	1
0	4675	599.575530765064	1
0	4694	601.075530765064	1
0	4713	602.575530765064	1
0	4727	604.075530765064	1
0	4741	605.575530765064	1
0	4763	608.514344131095	1
0	4774	610.014344131095	1
0	4795	611.514344131095	1
0	4810	613.014344131095	1
0	4821	614.514344131095	1
0	4841	617.191944977021	1
0	4854	618.691944977021	1
0	4868	620.638296801185	1
0	4890	626.32063466174	1
0	4971	632.986264284834	1
0	4999	636.655342560354	1
0	5010	638.155342560354	1
0	5047	642.376001464827	1
0	5133	657.307288639301	1
0	5148	658.807288639301	1
0	5166	661.57515772943	1
0	5186	663.229658897418	1
0	5198	664.729658897418	1
0	5215	666.316557718983	1
0	5309	683.486855404793	1
0	5335	687.959800234182	1
0	5346	689.459800234182	1
0	5357	690.959800234182	1
0	5366	692.459800234182	1
0	5390	694.49422829643	1
0	5431	699.101303078698	1
0	5445	700.601303078698	1
0	5459	702.101303078698	1
0	5517	710.797163309928	1
0	5539	718.614963727064	1
0	5594	726.269635821053	1
0	5610	727.769635821053	1
0	5648	733.161455716432	1
0	5667	734.661455716432	1
0	5687	736.161455716432	1
0	5701	737.661455716432	1
0	5727	740.637532739003	1
0	5764	744.660773466796	1
0	5778	746.160773466796	1
0	5793	748.165579694613	1
0	5837	759.091433937501	1
0	5948	773.3104463312	1
0	5957	774.8104463312	1
0	5973	776.361839709311	1
0	5987	777.861839709311	1
0	6001	783.505181288802	1
0	6009	785.005181288802	1
0	6025	786.505181288802	1
0	6034	788.005181288802	1
0	6100	803.17236931871	1
0	6170	808.135233664179	1
0	6209	812.32471289287	1
0	6300	829.971995995426	1
0	6341	833.881242757238	1
0	6366	835.965194024131	1
0	6394	838.338810163613	1
0	6430	842.791808729424	1
0	6443	844.291808729424	1
0	6480	848.012650566009	1
0	6488	849.512650566009	1
0	6513	851.667204460172	1
0	6546	859.206943446457	1
0	6554	860.706943446457	1
0	6601	865.749177880723	1
0	6618	868.292568354415	1
0	6628	871.462445776981	1
0	6729	880.641165296647	1
0	6743	882.55217362106	1
0	6777	887.326746830157	1
0	6814	890.738833557448	1
0	6833	892.238833557448	1
0	6855	893.738833557448	1
0	6872	895.238833557448	1
0	6886	896.738833557448	1
0	6907	898.238833557448	1
0	6922	899.738833557448	1
0	6943	901.238833557448	1
0	6965	902.738833557448	1
0	6977	904.238833557448	1
0	7007	909.129587196109	1
0	7054	917.793094701606	1
0	7079	922.895227184755	1
0	7092	924.395227184755	1
0	7183	933.818492327667	1
0	7326	952.356984989125	1
0	7404	964.81390005746	1
0	7433	966.805911610273	1
0	7442	968.305911610273	1
0	7465	973.141832828742	1
0	7505	977.358712144147	1
0	7546	983.549309237365	1
0	7561	985.049309237365	1
0	7584	987.305371372071	1
0	7593	988.805371372071	1
0	7599	990.305371372071	1
0	7624	994.337155813281	1
0	7637	995.837155813281	1
0	7661	997.54505362706	1
0	7678	999.04505362706	1
0	7692	1000.54505362706	1
0	7708	1002.04505362706	1
0	7722	1003.54505362706	1
0	7763	1008.09003419208	1
0	7783	1010.183937880661	1
0	7826	1015.35181324903	1
0	7840	1016.85181324903	1
0	7861	1020.091658427069	1
0	7887	1024.763802320509	1
0	7930	1028.832618056717	1
0	7944	1030.332618056717	1
0	7961	1031.832618056717	1
0	7975	1033.332618056717	1
0	7984	1034.832618056717	1
0	8003	1040.812728309654	1
0	8011	1042.312728309654	1
0	8027	1043.93610872602	1
0	8044	1045.43610872602	1
0	8055	1046.93610872602	1
0	8076	1048.43610872602	1
0	8098	1049.93610872602	1
0	8120	1051.43610872602	1
0	8149	1055.352192846003	1
0	8170	1056.852192846003	1
0	8192	1059.771923941746	1
0	8223	1063.959388706293	1
0	8251	1068.467703319678	1
0	8283	1071.771388238404	1
0	8311	1076.066505936624	1
0	8333	1078.638634803189	1
0	8344	1080.138634803189	1
0	8362	1081.638634803189	1
0	8376	1083.138634803189	1
0	8398	1084.638634803189	1
0	8410	1086.138634803189	1
0	8455	1091.631410415669	1
0	8475	1094.011268006691	1
0	8510	1099.760724411747	1
0	8532	1103.267665168344	1
0	8565	1109.142571289104	1
0	8646	1124.460709804782	1
0	8655	1125.960709804782	1
0	8674	1127.720975297434	1
0	8723	1133.024951467881	1
0	8742	1134.524951467881	1
0	8756	1136.024951467881	1
0	8776	1137.669442597781	1
0	8805	1139.332929061203	1
0	8840	1142.379031824491	1
0	8861	1145.821207940153	1
0	8869	1147.321207940153	1
0	8875	1148.821207940153	1
0	8900	1152.800782631945	1
0	8915	1154.300782631945	1
0	8931	1155.800782631945	1
0	8940	1157.300782631945	1
0	8946	1158.800782631945	1
0	8954	1160.300782631945	1
0	8963	1161.800782631945	1
0	8971	1163.758841553421	1
0	8979	1165.258841553421	1
0	9016	1173.429414906561	1
0	9102	1184.994205577247	1
0	9119	1186.986811981523	1
0	9136	1190.891976193752	1
0	9144	1192.391976193752	1
0	9160	1193.891976193752	1
0	9179	1195.391976193752	1
0	9188	1196.891976193752	1
0	9194	1198.391976193752	1
0	9208	1200.957474701402	1
0	9221	1202.457474701402	1
0	9251	1205.613867832832	1
0	9285	1209.929311002031	1
0	9317	1217.262057528316	1
0	9333	1218.762057528316	1
0	9352	1220.262057528316	1
0	9364	1221.762057528316	1
0	9387	1224.285886724601	1
0	9416	1227.490171544734	1
0	9433	1229.940175116049	1
0	9446	1231.440175116049	1
0	9475	1232.940175116049	1
0	9492	1234.440175116049	1
0	9523	1236.799554303965	1
0	9581	1244.464218198878	1
0	9600	1245.964218198878	1
0	9612	1247.464218198878	1
0	9653	1253.674129344719	1
0	9673	1257.114678836924	1
0	9705	1260.825766083952	1
0	9724	1262.512092463719	1
0	9767	1267.418380831808	1
0	9787	1268.918380831808	1
0	9821	1272.495237602596	1
0	9852	1277.620804568632	1
0	9873	1279.7846661261	1
0	9886	1281.2846661261	1
0	9903	1282.7846661261	1
0	9917	1285.175034979944	1
0	9955	1292.263283554104	1
0	9964	1293.763283554104	1
0	9982	1296.115222017025	1
0	9998	1297.615222017025	1
0	10010	1299.115222017025	1
0	10024	1300.615222017025	1
0	10126	1313.603680778333	1
0	10142	1316.807647769813	1
0	10166	1318.307647769813	1
0	10178	1319.807647769813	1
0	10186	1321.307647769813	1
0	10205	1322.807647769813	1
0	10216	1324.307647769813	1
0	10233	1325.807647769813	1
0	10244	1327.307647769813	1
0	10247	1328.807647769813	1
0	10260	1330.307647769813	1
0	10271	1331.807647769813	1
0	10292	1333.307647769813	1
0	10304	1334.807647769813	1
0	10318	1336.307647769813	1
0	10329	1337.807647769813	1
0	10348	1339.307647769813	1
0	10357	1340.807647769813	1
0	10370	1342.307647769813	1
0	10392	1344.452899912095	1
0	10409	1345.952899912095	1
0	10429	1349.236600839716	1
0	10450	1352.895294637769	1
0	10469	1354.395294637769	1
0	10497	1358.796264790024	1
0	10527	1361.10922419031	1
0	10543	1362.60922419031	1
0	10559	1364.10922419031	1
0	10571	1365.60922419031	1
0	10582	1367.10922419031	1
0	10601	1368.60922419031	1
0	10615	1370.10922419031	1
0	10642	1371.691627190869	1
0	10659	1373.191627190869	1
0	10673	1374.691627190869	1
0	10710	1380.611152888351	1
0	10799	1390.789005147887	1
0	10819	1392.831888577166	1
0	10870	1399.116621706751	1
0	10886	1400.616621706751	1
0	10895	1402.116621706751	1
0	10906	1403.616621706751	1
0	10917	1405.116621706751	1
0	10928	1406.616621706751	1
0	10937	1408.116621706751	1
0	10945	1409.616621706751	1
0	10974	1411.116621706751	1
0	10996	1412.616621706751	1
0	11018	1414.116621706751	1
0	11030	1415.616621706751	1
0	11099	1426.714010114974	1
0	11121	1428.90546150579	1
0	11135	1430.40546150579	1
0	11206	1438.632746627133	1
0	11231	1440.994333641408	1
0	11245	1442.494333641408	1
0	11253	1443.994333641408	1
0	11264	1445.494333641408	1
0	11280	1446.994333641408	1
0	11294	1448.494333641408	1
0	11316	1449.994333641408	1
0	11376	1456.460485017366	1
0	11406	1457.960485017366	1
0	11503	1467.9633737064	1
0	11525	1470.674649204134	1
0	11556	1475.737647055928	1
0	11620	1483.731068099739	1
0	11680	1491.465463729728	1
0	11691	1492.965463729728	1
0	11709	1496.107840887976	1
0	11728	1497.607840887976	1
0	11742	1499.107840887976	1
0	11776	1503.602823505823	1
0	11784	1505.102823505823	1
0	11809	1507.946862813338	1
0	11832	1512.340231278954	1
0	11875	1521.986954168987	1
0	11899	1524.747348655968	1
0	11940	1529.173394136596	1
0	11957	1531.035864322984	1
0	12001	1536.581145161228	1
0	12007	1538.081145161228	1
0	12010	1539.581145161228	1
0	12023	1542.426406138441	1
0	12034	1543.926406138441	1
0	12043	1545.426406138441	1
0	12116	1556.780118515434	1
0	12125	1558.280118515434	1
0	12177	1564.511999124469	1
0	12203	1566.809142561329	1
0	12217	1571.021802492565	1
0	12228	1573.624755810298	1
0	12239	1576.415087112657	1
0	12249	1578.717250549327	1
0	12271	1580.994023858525	1
0	12290	1582.811153683143	1
0	12296	1584.311153683143	1
0	12314	1587.981741981013	1
0	12328	1589.481741981013	1
0	12353	1593.28611153099	1
0	12388	1596.368107395051	1
0	12397	1597.868107395051	1
0	12441	1604.055017231311	1
0	12477	1607.907249804736	1
0	12540	1618.590610958723	1
0	12562	1620.816755749687	1
0	12595	1624.500538319038	1
0	12617	1626.674404524149	1
0	12639	1628.996186932346	1
0	12690	1636.94080537708	1
0	12735	1643.665875255293	1
0	12776	1648.040839295678	1
0	12797	1650.448396531303	1
0	12825	1653.230600035777	1
0	12861	1657.100691415832	1
0	12883	1658.600691415832	1
0	12930	1666.435769084731	1
0	12970	1671.350745638394	1
0	12992	1673.552041835529	1
0	13021	1676.186816877529	1
0	13040	1677.686816877529	1
0	13083	1680.102863348549	1
0	13167	1686.988572849975	1
0	13186	1688.488572849975	1
0	13197	1689.988572849975	1
0	13205	1691.488572849975	1
0	13211	1692.988572849975	1
0	13227	1694.488572849975	1
0	13244	1695.988572849975	1
0	13283	1699.825234601386	1
0	13300	1701.325234601386	1
0	13317	1703.793887739307	1
0	13327	1705.299893945875	1
0	13353	1706.852818636429	1
0	13367	1708.352818636429	1
0	13381	1709.852818636429	1
0	13403	1711.352818636429	1
0	13501	1721.95398255297	1
0	13533	1725.239668891692	1
0	13552	1728.829528998327	1
0	13571	1730.329528998327	1
0	13618	1735.426766566022	1
0	13722	1746.035420746231	1
0	13731	1747.535420746231	1
0	13755	1749.125038313829	1
0	13767	1750.625038313829	1
0	13795	1752.764564432195	1
0	13816	1754.684295361291	1
0	13830	1756.184295361291	1
0	13901	1765.429963786888	1
0	14053	1785.18076861252	1
0	14061	1786.68076861252	1
0	14072	1788.18076861252	1
0	14108	1793.97336479583	1
0	14122	1795.47336479583	1
0	14135	1796.97336479583	1
0	14144	1798.47336479583	1
0	14157	1800.520783146828	1
0	14196	1805.719568265932	1
0	14213	1808.874587989349	1
0	14231	1810.374587989349	1
0	14292	1818.287017382014	1
0	14319	1821.116030191758	1
0	14345	1823.254922393304	1
0	14378	1828.321781359872	1
0	14416	1833.385515547289	1
0	14548	1846.81343413396	1
0	14569	1848.935695289928	1
0	14581	1850.435695289928	1
0	14622	1855.12600963381	1
0	14667	1858.196076569637	1
0	14684	1859.696076569637	1
0	14696	1861.196076569637	1
0	14741	1868.637617093056	1
0	14749	1870.137617093056	1
0	14768	1874.383989837946	1
0	14785	1879.271871911017	1
0	14867	1891.797650149394	1
0	14917	1901.216787473365	1
0	14940	1902.716787473365	1
0	15019	1910.485286861021	1
0	15054	1915.815748861731	1
0	15076	1918.796735352884	1
0	15084	1920.296735352884	1
0	15099	1922.885399286773	1
0	15188	1932.046755558099	1
0	15224	1936.646448423343	1
0	15236	1938.146448423343	1
0	15306	1948.161188002796	1
0	15342	1952.731873852871	1
0	15356	1954.231873852871	1
0	15374	1957.244963060988	1
0	15401	1960.625246699911	1
0	15434	1965.526864141841	1
0	15476	1969.775798432502	1
0	15493	1971.275798432502	1
0	15507	1972.775798432502	1
0	15521	1974.275798432502	1
0	15532	1975.775798432502	1
0	15587	1985.543436225022	1
0	15659	1995.641216313193	1
0	15680	1997.840342988433	1
0	15767	2007.600292911875	1
0	15796	2009.394585940454	1
0	15813	2010.894585940454	1
0	15890	2018.785767517327	1
0	15912	2024.719227720895	1
0	15944	2029.949761043294	1
0	15967	2031.615013745684	1
0	16028	2043.712929648782	1
0	16066	2051.084116670158	1
0	16082	2052.584116670158	1
0	16091	2054.084116670158	1
0	16116	2057.508938818688	1
0	16148	2061.359632308956	1
0	16159	2062.859632308956	1
0	16168	2064.359632308956	1
0	16198	2071.73393459376	1
0	16225	2075.084787968815	1
0	16281	2083.715831942955	1
0	16311	2086.954809678408	1
0	16330	2090.074153004212	1
0	16368	2095.684160137995	1
0	16379	2097.184160137995	1
0	16396	2099.894792863609	1
0	16408	2102.296403729007	1
0	16428	2106.137404271022	1
0	16437	2107.637404271022	1
0	16500	2116.043724382669	1
0	16533	2120.892124634767	1
0	16560	2122.935940630984	1
0	16605	2128.694698564706	1
0	16617	2130.373971932921	1
0	16628	2132.480535191791	1
0	16638	2134.636500686395	1
0	16646	2136.136500686395	1
0	16662	2137.636500686395	1
0	16674	2139.136500686395	1
0	16715	2143.979413361666	1
0	16731	2145.479413361666	1
0	16745	2146.979413361666	1
0	16761	2148.479413361666	1
0	16775	2149.979413361666	1
0	16809	2156.416072683793	1
0	16815	2157.916072683793	1
0	16826	2160.258306332249	1
0	16836	2162.125894705046	1
0	16847	2164.482159256677	1
0	16874	2167.453984297346	1
0	16885	2168.953984297346	1
0	16908	2172.964485587797	1
0	16914	2174.464485587797	1
0	16953	2180.477373512912	1
0	16979	2182.939563469392	1
0	17050	2191.971349226569	1
0	17094	2196.873760911534	1
0	17108	2199.41623016878	1
0	17122	2201.276901971663	1
0	17149	2204.466053739357	1
0	17158	2205.966053739357	1
0	17172	2207.887638176084	1
0	17211	2210.517614188172	1
0	17228	2212.017614188172	1
0	17292	2218.340340232573	1
0	17333	2221.709734361798	1
0	17366	2226.744998858526	1
0	17401	2230.438242580429	1
0	17433	2231.938242580429	1
0	17448	2233.438242580429	1
0	17465	2234.938242580429	1
0	17495	2236.487418564052	1
0	17533	2241.056169713727	1
0	17545	2242.556169713727	1
0	17575	2246.104695007512	1
0	17601	2254.062554402643	1
0	17617	2257.769487684038	1
0	17633	2259.309404590281	1
0	17661	2261.94700817881	1
0	17699	2269.793673561386	1
0	17732	2274.628714911431	1
0	17803	2284.235646628576	1
0	17812	2285.735646628576	1
0	17831	2287.520148424196	1
0	17853	2290.805320025075	1
0	17867	2292.305320025075	1
0	17883	2294.228846236992	1
0	17919	2298.50945384529	1
0	17969	2305.558263896752	1
0	17986	2309.472281552052	1
0	18067	2319.200379540105	1
0	18076	2320.700379540105	1
0	18092	2322.200379540105	1
0	18128	2325.557313391236	1
0	18145	2328.079443989572	1
0	18167	2331.180312370642	1
0	18178	2333.319735020277	1
0	18277	2349.744373535284	1
0	18296	2351.244373535284	1
0	18307	2352.744373535284	1
0	18338	2358.007137834295	1
0	18359	2360.594188008489	1
0	18368	2362.094188008489	1
0	18400	2368.033379750448	1
0	18417	2369.533379750448	1
0	18433	2371.033379750448	1
0	18459	2376.660373820548	1
0	18470	2378.160373820548	1
0	18480	2379.660373820548	1
0	18489	2381.160373820548	1
0	18502	2384.114095884177	1
0	18516	2385.614095884177	1
0	18522	2387.114095884177	1
0	18535	2388.876583484698	1
0	18579	2391.323071895686	1
0	18598	2392.823071895686	1
0	18630	2394.323071895686	1
0	18642	2395.823071895686	1
0	18672	2399.764765584057	1
0	18722	2405.18553030085	1
0	18746	2406.68553030085	1
0	18828	2412.841568564507	1
0	18897	2420.271855240259	1
0	18987	2431.653501625982	1
0	19027	2436.088161234765	1
0	19143	2449.124041802568	1
0	19168	2454.30925845198	1
0	19206	2458.39852650984	1
0	19217	2459.89852650984	1
0	19236	2461.39852650984	1
0	19323	2475.287439560882	1
0	19355	2485.787463406536	1
0	19393	2491.886174525967	1
0	19423	2495.390638668181	1
0	19486	2502.25909686767	1
0	19500	2503.75909686767	1
0	19517	2505.25909686767	1
0	19558	2510.59729584578	1
0	19585	2512.472753107474	1
0	19637	2516.626762533737	1
0	19685	2522.478938623372	1
0	19756	2530.262527409226	1
0	19779	2533.05537256654	1
0	19801	2536.902110814187	1
0	19845	2545.756765350219	1
0	19922	2559.002722869023	1
0	19977	2566.317362453968	1
0	20089	2584.169279431917	1
0	20100	2585.669279431917	1
0	20114	2589.057161902879	1
0	20125	2591.554667944695	1
0	20133	2593.054667944695	1
0	20139	2594.554667944695	1
0	20166	2599.229871254696	1
0	20187	2600.729871254696	1
0	20196	2602.229871254696	1
0	20204	2603.729871254696	1
0	20215	2605.229871254696	1
0	20221	2606.729871254696	1
0	20229	2608.229871254696	1
0	20243	2609.729871254696	1
0	20262	2611.737312758578	1
0	20288	2616.421839580934	1
0	20317	2619.321830164265	1
0	20449	2639.135470446597	1
0	20458	2640.635470446597	1
0	20477	2645.096536784304	1
0	20528	2650.062114188119	1
0	20560	2651.562114188119	1
0	20575	2653.062114188119	1
0	20597	2654.562114188119	1
0	20619	2656.062114188119	1
0	20636	2658.752938986251	1
0	20645	2660.252938986251	1
0	20665	2664.654009939975	1
0	20691	2668.667957167633	1
0	20741	2676.817777213254	1
0	20764	2678.564869085786	1
0	20775	2680.325766699435	1
0	20812	2687.49244834113	1
0	20846	2690.805479820273	1
0	20884	2694.282505492165	1
0	20905	2695.782505492165	1
0	20911	2697.282505492165	1
0	20917	2698.782505492165	1
0	20925	2700.282505492165	1
0	21044	2713.046766974493	1
0	21070	2715.798214333531	1
0	21087	2717.298214333531	1
0	21096	2718.798214333531	1
0	21104	2722.536394053482	1
0	21112	2724.036394053482	1
0	21123	2725.536394053482	1
0	21211	2736.70596732654	1
0	21226	2739.332669395451	1
0	21251	2741.024759080491	1
0	21266	2742.524759080491	1
0	21280	2744.255746154814	1
0	21297	2746.368305484855	1
0	21310	2747.868305484855	1
0	21316	2749.368305484855	1
0	21367	2755.777147785017	1
0	21381	2757.277147785017	1
0	21397	2758.777147785017	1
0	21409	2760.277147785017	1
0	21417	2761.777147785017	1
0	21431	2763.277147785017	1
0	21439	2764.777147785017	1
0	21450	2766.277147785017	1
0	21461	2767.777147785017	1
0	21475	2769.277147785017	1
0	21502	2773.444351732761	1
0	21583	2783.963217159086	1
0	21604	2785.987795347192	1
0	21644	2789.466220547849	1
0	21660	2791.334982453094	1
0	21673	2792.834982453094	1
0	21702	2794.796727474499	1
0	21714	2796.296727474499	1
0	21782	2802.49612559081	1
0	21819	2807.365883582901	1
0	21852	2811.380130706356	1
0	21866	2812.880130706356	1
0	21916	2817.67602672746	1
0	21993	2830.794815280462	1
0	22023	2834.28758730333	1
0	22044	2836.702169983879	1
0	22058	2838.202169983879	1
0	22077	2840.323597965863	1
0	22110	2849.128817572017	1
0	22129	2850.628817572017	1
0	22141	2852.128817572017	1
0	22196	2859.468905934329	1
0	22218	2861.948146841146	1
0	22242	2864.985852768435	1
0	22260	2867.120578552956	1
0	22308	2875.409329851746	1
0	22326	2878.074124669732	1
0	22369	2882.24517087386	1
0	22390	2883.970037702117	1
0	22404	2885.470037702117	1
0	22418	2886.970037702117	1
0	22435	2890.198138844763	1
0	22443	2891.698138844763	1
0	22454	2893.198138844763	1
0	22460	2894.698138844763	1
0	22485	2899.622009462478	1
0	22501	2901.195460246812	1
0	22531	2905.839033465491	1
0	22561	2909.80427525945	1
0	22616	2916.29858346812	1
0	22649	2919.127431756747	1
0	22767	2931.152655090716	1
0	22789	2933.150715467527	1
0	22825	2936.184602892495	1
0	22859	2938.785673262518	1
0	22880	2942.786016694043	1
0	22911	2946.951499347149	1
0	22932	2948.548670902775	1
0	22943	2950.048670902775	1
0	22949	2951.548670902775	1
0	22962	2953.048670902775	1
0	22971	2954.548670902775	1
0	22987	2956.048670902775	1
0	23029	2962.315674620623	1
0	23111	2974.0145641358	1
0	23120	2975.5145641358	1
0	23133	2978.001314221215	1
0	23147	2979.501314221215	1
0	23158	2981.001314221215	1
0	23204	2985.638887249335	1
0	23240	2991.132347189612	1
0	23254	2992.632347189612	1
0	23265	2994.132347189612	1
0	23274	2995.632347189612	1
0	23283	2997.360347936569	1
0	23304	3000.602291393141	1
0	23315	3003.740632500633	1
0	23331	3005.935552432371	1
0	23358	3007.633688168775	1
0	23374	3009.133688168775	1
0	23383	3010.633688168775	1
0	23397	3012.133688168775	1
0	23408	3013.633688168775	1
0	23419	3015.133688168775	1
0	23430	3016.633688168775	1
0	23439	3018.133688168775	1
0	23452	3020.300119444931	1
0	23468	3021.800119444931	1
0	23477	3023.300119444931	1
0	23488	3024.800119444931	1
0	23494	3026.300119444931	1
0	23537	3029.548024670444	1
0	23551	3031.048024670444	1
0	23568	3032.548024670444	1
0	23585	3034.31224229079	1
0	23614	3040.333091271376	1
0	23650	3044.213758755532	1
0	23683	3047.936155822866	1
0	23768	3056.700090456687	1
0	23793	3060.627675144948	1
0	23807	3062.127675144948	1
0	23831	3064.34240302201	1
0	23840	3065.84240302201	1
0	23851	3067.34240302201	1
0	23903	3075.56673890844	1
0	23942	3080.355819493867	1
0	23964	3084.120496967225	1
0	23976	3085.759380686345	1
0	23986	3087.942239522925	1
0	23997	3090.469149535574	1
0	24029	3093.60088130994	1
0	24107	3105.052876210018	1
0	24115	3106.552876210018	1
0	24162	3112.152369086509	1
0	24189	3116.865652453925	1
0	24208	3118.494224217477	1
0	24256	3123.282519885838	1
0	24310	3132.468468472384	1
0	24332	3133.983390387571	1
0	24346	3135.483390387571	1
0	24357	3136.983390387571	1
0	24415	3144.737302142082	1
0	24448	3148.37310398566	1
0	24451	3149.87310398566	1
0	24506	3157.765992749133	1
0	24520	3159.265992749133	1
0	24558	3164.983406157923	1
0	24570	3166.526476763285	1
0	24602	3169.909047100496	1
0	24652	3175.713111050879	1
0	24780	3195.076141505823	1
0	24816	3199.498075704433	1
0	24833	3203.465279774037	1
0	24845	3205.621387898913	1
0	24855	3208.421763218517	1
0	24863	3209.921763218517	1
0	24882	3211.996971378421	1
0	24944	3229.389811443997	1
0	24966	3233.617712189952	1
0	24992	3236.49266711823	1
0	25001	3237.99266711823	1
0	25055	3244.037194537586	1
0	25077	3245.537194537586	1
0	25125	3251.380247876405	1
0	25159	3254.222294451805	1
0	25171	3255.722294451805	1
0	25186	3257.572529871604	1
0	25197	3259.255588280891	1
0	25207	3261.28733701014	1
0	25258	3265.124990497177	1
0	25270	3266.624990497177	1
0	25316	3272.012721821313	1
0	25325	3273.512721821313	1
0	25336	3275.012721821313	1
0	25355	3277.598724001027	1
0	25399	3282.369508192008	1
0	25416	3283.869508192008	1
0	25435	3285.369508192008	1
0	25446	3286.869508192008	1
0	25495	3293.133795773731	1
0	25512	3294.633795773731	1
0	25540	3297.077850385479	1
0	25603	3307.967727513936	1
0	25616	3309.467727513936	1
0	25675	3318.770830145063	1
0	25683	3320.270830145063	1
0	25696	3321.867745780406	1
0	25712	3323.367745780406	1
0	25726	3324.867745780406	1
0	25751	3326.942088580491	1
0	25762	3328.442088580491	1
0	25823	3337.707056439733	1
0	25867	3344.299076497003	1
0	25889	3345.96266087098	1
0	25902	3347.46266087098	1
0	25916	3348.96266087098	1
0	25933	3352.387039152122	1
0	25971	3356.981749248586	1
0	25985	3358.481749248586	1
0	26027	3365.443461808136	1
0	26048	3367.416261637302	1
0	26067	3370.069045084915	1
0	26076	3371.569045084915	1
0	26092	3373.219430890885	1
0	26114	3375.6342878207	1
0	26133	3377.1342878207	1
0	26155	3378.6342878207	1
0	26187	3383.641719042165	1
0	26247	3388.931090150426	1
0	26264	3390.431090150426	1
0	26279	3391.931090150426	1
0	26298	3393.431090150426	1
0	26322	3394.931090150426	1
0	26339	3396.431090150426	1
0	26361	3397.931090150426	1
0	26388	3400.052923267655	1
0	26403	3401.552923267655	1
0	26414	3403.052923267655	1
0	26425	3404.552923267655	1
0	26445	3406.709099460989	1
0	26458	3408.209099460989	1
0	26505	3418.263652630868	1
0	26508	3419.763652630868	1
0	26516	3422.637748586815	1
0	26519	3424.137748586815	1
0	26533	3426.176632859674	1
0	26546	3427.676632859674	1
0	26567	3429.176632859674	1
0	26584	3430.676632859674	1
0	26598	3432.176632859674	1
0	26604	3433.676632859674	1
0	26615	3435.506854731663	1
0	26642	3438.631802627366	1
0	26692	3449.725529342091	1
0	26719	3454.156219133923	1
0	26745	3455.656219133923	1
0	26765	3457.156219133923	1
0	26777	3458.656219133923	1
0	26821	3463.5877619893	1
0	26842	3465.0877619893	1
0	26856	3466.5877619893	1
0	26862	3468.0877619893	1
0	26873	3469.5877619893	1
0	26928	3476.875256186036	1
0	26942	3478.375256186036	1
0	26967	3480.789928827893	1
0	26994	3487.684739897784	1
0	27040	3491.065519134881	1
0	27082	3495.440273991854	1
0	27105	3497.014298886491	1
0	27111	3498.514298886491	1
0	27122	3501.318417135148	1
0	27195	3510.801162355116	1
0	27220	3512.910816965181	1