version 3
run k_MM1_rand-14-20221127-16:03:21-5740
attr configname k_MM1_rand
attr datetime 20221127-16:03:21
attr datetimef 20221127-160321
attr experiment k_MM1_rand
attr inifile omnetpp.ini
attr iterationvars "$time=1.5, $num=5, $0=47853, $1=24674, $2=96433"
attr iterationvarsd time=1.5/num=5/47853/24674/96433
attr iterationvarsf time=1.5,num=5,47853,24674,96433-
attr measurement "$time=1.5, $num=5, $0=47853, $1=24674, $2=96433"
attr network randkMM1
attr processid 5740
attr repetition 2
attr replication #2
attr resultdir results
attr runnumber 14
attr seedset 14
itervar num 5
itervar time 1.5
config description "MM1 module k-times random"
config network randkMM1
config **.source.interArrivalTime "truncnormal(0.5s, 1.5s)"
config **.serviceTime 1.5s
config **.c 5
config **.capacity 10000
config record-eventlog false
config **.scalar-recording true
config **.vector-recording true
config repeat 4
config seed-1-mt 47853
config seed-2-mt 24674
config seed-3-mt 96433
config output-vector-file k_MM1_rand-5-1.5-results/2.vec
config output-scalar-file k_MM1_rand-5-1.5-results/2.sca

vector 0 randkMM1.mm1[1] util:vector ETV
attr interpolationmode none
attr recordingmode vector
attr title resources
vector 1 randkMM1.mm1[2] util:vector ETV
attr interpolationmode none
attr recordingmode vector
attr title resources
vector 2 randkMM1.mm1[2] queueLength:vector ETV
attr interpolationmode none
attr recordingmode vector
attr title "queue length"
vector 3 randkMM1.mm1[4] util:vector ETV
attr interpolationmode none
attr recordingmode vector
attr title resources
vector 4 randkMM1.mm1[4] queueLength:vector ETV
attr interpolationmode none
attr recordingmode vector
attr title "queue length"
vector 5 randkMM1.mm1[0] queueLength:vector ETV
attr interpolationmode none
attr recordingmode vector
attr title "queue length"
vector 6 randkMM1.mm1[3] util:vector ETV
attr interpolationmode none
attr recordingmode vector
attr title resources
vector 7 randkMM1.mm1[0] util:vector ETV
attr interpolationmode none
attr recordingmode vector
attr title resources
vector 8 randkMM1.mm1[3] queueLength:vector ETV
attr interpolationmode none
attr recordingmode vector
attr title "queue length"
vector 9 randkMM1.mm1[1] queueLength:vector ETV
attr interpolationmode none
attr recordingmode vector
attr title "queue length"
0	6	11.5	1
0	33	14.202171681518	1
0	107	20.684177079762	1
0	121	22.184177079762	1
0	135	23.684177079762	1
0	141	25.184177079762	1
0	150	26.734280149767	1
0	183	31.273577035334	1
0	198	33.265418334781	1
0	207	34.765418334781	1
0	265	42.296484256927	1
0	286	46.392211331716	1
0	292	47.892211331716	1
0	300	49.392211331716	1
0	315	52.319475683867	1
0	330	54.456078038383	1
0	344	55.956078038383	1
0	355	57.456078038383	1
0	385	59.701703162588	1
0	418	61.668612659278	1
0	516	70.915498562192	1
0	533	72.415498562192	1
0	562	73.915498562192	1
0	574	75.415498562192	1
0	588	76.915498562192	1
0	620	78.415498562192	1
0	634	79.915498562192	1
0	648	81.415498562192	1
0	662	82.915498562192	1
0	679	84.415498562192	1
0	699	89.212197043881	1
0	721	96.277509940938	1
0	738	99.341255133006	1
0	778	106.490834328367	1
0	792	107.990834328367	1
0	845	112.483460787972	1
0	864	115.565731682453	1
0	897	120.749570633648	1
0	925	126.311051797127	1
0	977	131.348440147481	1
0	1012	135.448981554097	1
0	1021	136.948981554097	1
0	1061	143.861700397816	1
0	1078	145.361700397816	1
0	1097	146.864208756606	1
0	1109	148.364208756606	1
0	1134	151.278740239688	1
0	1147	152.778740239688	1
0	1158	154.278740239688	1
0	1188	156.87293743322	1
0	1194	158.37293743322	1
0	1202	159.87293743322	1
0	1215	161.37293743322	1
0	1232	162.87293743322	1
0	1257	166.641793216203	1
0	1283	170.591321756589	1
0	1342	179.434151623393	1
0	1353	180.934151623393	1
0	1367	182.434151623393	1
0	1388	183.934151623393	1
0	1410	185.434151623393	1
0	1427	186.934151623393	1
0	1446	188.434151623393	1
0	1480	192.111760435121	1
0	1508	195.516097023201	1
0	1513	197.016097023201	1
0	1521	198.516097023201	1
0	1532	200.016097023201	1
0	1543	201.516097023201	1
0	1624	213.658438010997	1
0	1711	223.791422815421	1
0	1783	234.006593069379	1
0	1854	247.043186989683	1
0	1881	250.911863402094	1
0	1892	252.411863402094	1
0	1900	253.911863402094	1
0	1906	255.411863402094	1
0	1914	256.911863402094	1
0	1933	258.411863402094	1
0	1958	260.9843768826	1
0	1967	262.4843768826	1
0	2071	274.239820718199	1
0	2087	275.98472213649	1
0	2099	277.48472213649	1
0	2123	280.794892102835	1
0	2200	289.691127786306	1
0	2211	291.191127786306	1
0	2220	292.691127786306	1
0	2250	299.958378608995	1
0	2283	304.751682100296	1
0	2295	307.04121361062	1
0	2334	309.641768899719	1
0	2348	311.141768899719	1
0	2362	312.641768899719	1
0	2387	315.154555121666	1
0	2401	316.654555121666	1
0	2432	319.866171432099	1
0	2448	322.153784975776	1
0	2489	328.531579225613	1
0	2520	332.939507688429	1
0	2541	334.744745005737	1
0	2547	336.244745005737	1
0	2559	338.14062423827	1
0	2632	348.3130518705	1
0	2679	356.876679777086	1
0	2691	358.390598672136	1
0	2701	361.073390609151	1
0	2717	363.19252235176	1
0	2731	364.69252235176	1
0	2756	368.3708163727	1
0	2781	371.188848324204	1
0	2845	381.157461865454	1
0	2927	389.030549927307	1
0	2947	390.530549927307	1
0	2964	392.030549927307	1
0	2981	393.530549927307	1
0	3071	403.779680529575	1
0	3107	407.579825800751	1
0	3170	415.534447627555	1
0	3207	420.398270993093	1
0	3223	421.943828682342	1
0	3234	423.443828682342	1
0	3243	424.943828682342	1
0	3263	427.361608155819	1
0	3293	429.311940317469	1
0	3322	431.672273469929	1
0	3339	433.999400316186	1
0	3396	441.159713728596	1
0	3448	447.139866363703	1
0	3462	448.639866363703	1
0	3488	452.521578689584	1
0	3515	454.802067826642	1
0	3531	456.302067826642	1
0	3549	460.963360789648	1
0	3581	465.746570484055	1
0	3611	469.653101499509	1
0	3622	471.153101499509	1
0	3636	473.261173700164	1
0	3691	481.905016280621	1
0	3702	483.684646100656	1
0	3770	490.762024921443	1
0	3790	493.375876259639	1
0	3863	501.797804537029	1
0	3898	505.590492912371	1
0	3922	509.018908254808	1
0	3949	511.196802542052	1
0	3958	512.696802542052	1
0	3971	514.323028290454	1
0	3982	515.823028290454	1
0	3999	517.445791361832	1
0	4021	519.997596568914	1
0	4030	521.497596568914	1
0	4040	522.997596568914	1
0	4046	524.497596568914	1
0	4070	529.126173004971	1
0	4099	534.435788609776	1
0	4125	537.057070649148	1
0	4169	541.778031652633	1
0	4190	543.278031652633	1
0	4205	544.778031652633	1
0	4225	548.682007943515	1
0	4271	553.353089117611	1
0	4291	556.432796975397	1
0	4312	558.453513817251	1
0	4326	559.953513817251	1
0	4337	561.986080874792	1
0	4351	564.192956299343	1
0	4379	567.423997293482	1
0	4429	573.647270054464	1
0	4484	581.113352962212	1
0	4495	583.603845457629	1
0	4511	585.422285670744	1
0	4635	595.22145945249	1
0	4674	597.506102668748	1
0	4691	599.006102668748	1
0	4713	600.506102668748	1
0	4730	602.21380585304	1
0	4741	604.135236845263	1
0	4756	606.920986426682	1
0	4769	608.942735038083	1
0	4790	611.342118656926	1
0	4807	612.842118656926	1
0	4826	614.342118656926	1
0	4878	620.535016233075	1
0	4887	622.035016233075	1
0	4903	623.535016233075	1
0	4994	635.505569005343	1
0	5023	641.684786469994	1
0	5039	646.903703322403	1
0	5087	657.497173243433	1
0	5104	658.997173243433	1
0	5127	662.179483289327	1
0	5148	664.772967573822	1
0	5188	667.506966735531	1
0	5200	669.006966735531	1
0	5250	672.999622382685	1
0	5270	675.686847839498	1
0	5313	680.259568690227	1
0	5330	683.027747222004	1
0	5342	685.741056135354	1
0	5395	691.314274382216	1
0	5440	699.267961382489	1
0	5448	700.767961382489	1
0	5467	702.646374773898	1
0	5481	704.146374773898	1
0	5525	709.422997333922	1
0	5531	710.922997333922	1
0	5539	712.876526533155	1
0	5572	718.260872882478	1
0	5588	722.376876883872	1
0	5607	723.876876883872	1
0	5621	725.376876883872	1
0	5635	726.876876883872	1
0	5646	728.376876883872	1
0	5675	730.298032538222	1
0	5780	739.323934683128	1
0	5792	740.823934683128	1
0	5803	742.784657774413	1
0	5833	747.486452892425	1
0	5849	748.986452892425	1
0	5861	750.486452892425	1
0	5880	754.835019204337	1
0	5913	761.107798290755	1
0	5951	763.912397508299	1
0	5970	765.412397508299	1
0	5976	766.912397508299	1
0	5984	768.412397508299	1
0	5998	769.912397508299	1
0	6013	773.444425537494	1
0	6036	777.993720844304	1
0	6050	779.493720844304	1
0	6078	781.801839116819	1
0	6111	788.551717152394	1
0	6123	790.872386351518	1
0	6183	799.907662809849	1
0	6196	801.407662809849	1
0	6243	809.076042181675	1
0	6276	811.945102779874	1
0	6279	813.445102779874	1
0	6325	819.32499245044	1
0	6360	822.36493641777	1
0	6374	823.86493641777	1
0	6416	828.460927802934	1
0	6462	836.359882986182	1
0	6524	843.958104079181	1
0	6607	858.830235553784	1
0	6618	862.345339033969	1
0	6633	864.730067951739	1
0	6649	866.230067951739	1
0	6665	867.730067951739	1
0	6677	869.230067951739	1
0	6688	870.730067951739	1
0	6694	872.230067951739	1
0	6707	873.730067951739	1
0	6775	880.789045585529	1
0	6792	882.289045585529	1
0	6804	883.789045585529	1
0	6816	885.339020143494	1
0	6832	887.62541415785	1
0	6848	890.096681637187	1
0	6856	891.596681637187	1
0	6862	893.096681637187	1
0	6870	895.691444559255	1
0	6923	901.903682108723	1
0	6938	903.403682108723	1
0	6954	904.903682108723	1
0	6971	906.403682108723	1
0	6993	907.903682108723	1
0	7014	909.403682108723	1
0	7048	913.655296150666	1
0	7091	919.323555522162	1
0	7101	921.527106532917	1
0	7112	923.396782593144	1
0	7180	930.967420470115	1
0	7207	932.62658960791	1
0	7287	941.710573099875	1
0	7301	943.210573099875	1
0	7327	946.646771340136	1
0	7359	949.389090638163	1
0	7404	954.912204355472	1
0	7420	958.199783905733	1
0	7432	959.821575673104	1
0	7463	963.72116263468	1
0	7472	965.22116263468	1
0	7526	970.970859180641	1
0	7546	972.470859180641	1
0	7566	974.03659039009	1
0	7601	977.616192815301	1
0	7722	996.566088400648	1
0	7747	998.396581425506	1
0	7772	1002.747821000075	1
0	7805	1008.316687809096	1
0	7849	1014.262735831693	1
0	7868	1018.807159099335	1
0	7904	1023.475372171494	1
0	7907	1024.975372171494	1
0	7915	1028.178212378496	1
0	7932	1030.849037864645	1
0	7959	1033.982877612104	1
0	8035	1041.29342736821	1
0	8052	1042.79342736821	1
0	8079	1045.08248791005	1
0	8107	1048.620526068932	1
0	8141	1054.806472935011	1
0	8182	1058.149151857313	1
0	8226	1060.037367672604	1
0	8246	1061.537367672604	1
0	8263	1063.037367672604	1
0	8285	1064.537367672604	1
0	8302	1066.037367672604	1
0	8384	1074.671098328413	1
0	8412	1077.281015551502	1
0	8426	1078.781015551502	1
0	8444	1083.436522108537	1
0	8460	1085.665421943552	1
0	8499	1092.641426268867	1
0	8528	1096.412935522838	1
0	8569	1101.006690929062	1
0	8613	1105.000716718203	1
0	8649	1109.790160621703	1
0	8680	1112.741687834415	1
0	8696	1117.120507560102	1
0	8734	1122.547346529997	1
0	8778	1126.278319028643	1
0	8797	1127.778319028643	1
0	8811	1129.278319028643	1
0	8822	1130.778319028643	1
0	8831	1132.278319028643	1
0	8861	1137.027684179163	1
0	8875	1138.527684179163	1
0	8889	1140.027684179163	1
0	8921	1143.183711964481	1
0	8932	1144.683711964481	1
0	8946	1146.183711964481	1
0	8959	1147.683711964481	1
0	8976	1149.183711964481	1
0	8995	1150.683711964481	1
0	9001	1152.183711964481	1
0	9031	1157.446987355643	1
0	9070	1162.658779869255	1
0	9082	1164.859672733806	1
0	9102	1167.0087995014	1
0	9124	1168.5087995014	1
0	9141	1170.0087995014	1
0	9163	1173.320990422758	1
0	9207	1178.697275204912	1
0	9281	1187.137270806532	1
0	9306	1190.65835907716	1
0	9312	1192.15835907716	1
0	9345	1199.479773755107	1
0	9367	1202.222403532534	1
0	9390	1209.351298274798	1
0	9412	1212.674512362474	1
0	9449	1216.563359035866	1
0	9473	1218.063359035866	1
0	9485	1219.563359035866	1
0	9520	1224.636127687764	1
0	9534	1226.136127687764	1
0	9558	1227.636127687764	1
0	9570	1229.136127687764	1
0	9597	1231.426472424763	1
0	9697	1247.228227850573	1
0	9730	1256.447570993121	1
0	9746	1259.670933074464	1
0	9764	1261.678949240714	1
0	9774	1264.904349473172	1
0	9790	1266.590955767463	1
0	9801	1268.090955767463	1
0	9815	1269.590955767463	1
0	9826	1271.090955767463	1
0	9884	1277.967097053753	1
0	9887	1279.467097053753	1
0	9983	1299.430091930656	1
0	10006	1303.704251914172	1
0	10027	1307.838128025503	1
0	10035	1309.338128025503	1
0	10066	1311.886913512664	1
0	10095	1315.23902626929	1
0	10131	1318.417261278364	1
0	10147	1319.917261278364	1
0	10159	1321.417261278364	1
0	10193	1326.487510658522	1
0	10302	1344.472828739129	1
0	10379	1353.808269301979	1
0	10402	1358.420266535251	1
0	10442	1364.248227680709	1
0	10472	1368.767105893716	1
0	10486	1370.267105893716	1
0	10492	1371.767105893716	1
0	10512	1375.315599901487	1
0	10544	1379.454320614961	1
0	10610	1387.261697379413	1
0	10643	1391.695545105102	1
0	10672	1394.385851847142	1
0	10694	1395.885851847142	1
0	10708	1397.385851847142	1
0	10730	1398.885851847142	1
0	10749	1400.385851847142	1
0	10761	1401.885851847142	1
0	10772	1403.385851847142	1
0	10808	1407.181330307263	1
0	10840	1410.807672291345	1
0	10868	1416.163001569916	1
0	10894	1420.482736606345	1
0	10912	1423.410735559747	1
0	10923	1424.910735559747	1
0	10932	1426.410735559747	1
0	10941	1428.284303458005	1
0	10956	1431.713862474296	1
0	10972	1433.213862474296	1
0	10986	1434.713862474296	1
0	11032	1439.44739387352	1
0	11041	1440.94739387352	1
0	11052	1442.44739387352	1
0	11230	1462.391246516085	1
0	11264	1465.918655607129	1
0	11325	1476.418698682726	1
0	11358	1483.600322133591	1
0	11379	1485.548509902325	1
0	11385	1487.048509902325	1
0	11396	1488.548509902325	1
0	11415	1490.048509902325	1
0	11418	1491.548509902325	1
0	11431	1493.048509902325	1
0	11455	1494.548509902325	1
0	11475	1496.048509902325	1
0	11489	1497.548509902325	1
0	11517	1499.900813565256	1
0	11554	1505.874668822428	1
0	11582	1508.252613782699	1
0	11602	1509.752613782699	1
0	11627	1511.571269946906	1
0	11649	1513.071269946906	1
0	11673	1514.571269946906	1
0	11687	1516.071269946906	1
0	11699	1517.571269946906	1
0	11740	1523.300766245342	1
0	11756	1524.800766245342	1
0	11770	1526.300766245342	1
0	11794	1527.800766245342	1
0	11803	1529.300766245342	1
0	11841	1533.911393601711	1
0	11924	1542.654524004894	1
0	11938	1544.154524004894	1
0	11957	1545.753443432594	1
0	11963	1547.253443432594	1
0	11976	1548.753443432594	1
0	11990	1550.253443432594	1
0	12001	1551.753443432594	1
0	12007	1553.253443432594	1
0	12056	1561.622722538927	1
0	12108	1567.032499011407	1
0	12144	1570.650049279912	1
0	12202	1577.963001924271	1
0	12239	1584.136030717917	1
0	12271	1590.544827880692	1
0	12279	1592.044827880692	1
0	12367	1608.344044944446	1
0	12403	1611.967691465833	1
0	12430	1615.301275203256	1
0	12444	1616.801275203256	1
0	12463	1618.626122620402	1
0	12518	1623.339010456301	1
0	12531	1624.839010456301	1
0	12537	1626.339010456301	1
0	12548	1627.839010456301	1
0	12557	1629.339010456301	1
0	12565	1630.839010456301	1
0	12679	1647.201676984784	1
0	12705	1651.365103781877	1
0	12754	1657.007021201296	1
0	12765	1658.507021201296	1
0	12779	1660.007021201296	1
0	12798	1661.507021201296	1
0	12812	1663.007021201296	1
0	12823	1664.507021201296	1
0	12837	1666.007021201296	1
0	12848	1667.507021201296	1
0	12881	1670.852060817267	1
0	12890	1672.352060817267	1
0	12949	1679.573942818994	1
0	12968	1681.073942818994	1
0	12985	1682.573942818994	1
0	13009	1684.073942818994	1
0	13026	1685.573942818994	1
0	13040	1687.073942818994	1
0	13051	1688.573942818994	1
0	13068	1690.073942818994	1
0	13079	1691.573942818994	1
0	13090	1693.073942818994	1
0	13109	1694.573942818994	1
0	13121	1696.073942818994	1
0	13146	1700.565142428903	1
0	13159	1702.065142428903	1
0	13197	1705.214781235241	1
0	13250	1711.032286309566	1
0	13259	1712.532286309566	1
0	13277	1714.570737211197	1
0	13288	1716.070737211197	1
0	13307	1717.570737211197	1
0	13332	1722.54275509752	1
0	13382	1731.224253997675	1
0	13395	1732.724253997675	1
0	13437	1739.410259595978	1
0	13448	1742.687981153413	1
0	13475	1746.761512720679	1
0	13494	1748.393125323769	1
0	13511	1749.893125323769	1
0	13522	1751.393125323769	1
0	13542	1754.256007301511	1
0	13620	1762.699000614089	1
0	13637	1764.199000614089	1
0	13659	1765.699000614089	1
0	13668	1767.199000614089	1
0	13679	1768.823043828134	1
0	13690	1772.415164640615	1
0	13707	1776.639589029123	1
0	13717	1778.139589029123	1
0	13743	1779.639589029123	1
0	13763	1781.139589029123	1
0	13785	1782.639589029123	1
0	13799	1784.139589029123	1
0	13818	1785.639589029123	1
0	13851	1789.105030028695	1
0	13865	1790.605030028695	1
0	13897	1792.280195821774	1
0	13937	1795.415876438166	1
0	13982	1800.374637593424	1
0	14014	1802.958810341121	1
0	14030	1804.458810341121	1
0	14039	1805.958810341121	1
0	14096	1813.794858937073	1
0	14116	1815.762372108748	1
0	14247	1831.614578077452	1
0	14267	1833.114578077452	1
0	14305	1837.089098489317	1
0	14317	1838.589098489317	1
0	14382	1848.419234652619	1
0	14404	1850.391167727643	1
0	14410	1851.891167727643	1
0	14426	1853.391167727643	1
0	14448	1854.891167727643	1
0	14465	1856.391167727643	1
0	14471	1857.891167727643	1
0	14520	1863.659680952806	1
0	14586	1873.434264107079	1
0	14592	1874.934264107079	1
0	14605	1876.434264107079	1
0	14611	1877.934264107079	1
0	14622	1879.434264107079	1
0	14651	1884.079916456347	1
0	14670	1885.579916456347	1
0	14687	1887.079916456347	1
0	14706	1888.579916456347	1
0	14720	1890.079916456347	1
0	14726	1891.579916456347	1
0	14729	1893.079916456347	1
0	14742	1894.579916456347	1
0	14764	1896.079916456347	1
0	14778	1897.579916456347	1
0	14792	1899.079916456347	1
0	14803	1900.579916456347	1
0	14817	1902.079916456347	1
0	14836	1903.579916456347	1
0	14880	1906.464049824345	1
0	14894	1907.964049824345	1
0	14905	1909.464049824345	1
0	14916	1910.964049824345	1
0	14930	1912.464049824345	1
0	14941	1913.964049824345	1
0	14952	1915.464049824345	1
0	15026	1925.972586172442	1
0	15048	1927.529845507038	1
0	15073	1929.051164071545	1
0	15087	1930.551164071545	1
0	15100	1932.051164071545	1
0	15114	1933.551164071545	1
0	15128	1935.051164071545	1
0	15131	1936.551164071545	1
0	15144	1938.051164071545	1
0	15158	1939.551164071545	1
0	15180	1941.631553493311	1
0	15202	1943.873607926746	1
0	15279	1954.960461512954	1
0	15323	1962.042287766886	1
0	15337	1963.542287766886	1
0	15357	1965.267514010575	1
0	15379	1968.512870417973	1
0	15390	1970.012870417973	1
0	15406	1974.714731021844	1
0	15419	1976.214731021844	1
0	15433	1977.714731021844	1
0	15466	1983.220376634677	1
0	15499	1985.839082736765	1
0	15510	1987.339082736765	1
0	15524	1988.839082736765	1
0	15554	1993.272288101152	1
0	15573	1996.635360821767	1
0	15592	1998.135360821767	1
0	15609	1999.635360821767	1
0	15650	2003.302559276356	1
0	15669	2004.802559276356	1
0	15678	2006.302559276356	1
0	15745	2014.539291894816	1
0	15763	2017.483489162983	1
0	15777	2018.983489162983	1
0	15788	2020.483489162983	1
0	15799	2022.136692503073	1
0	15862	2031.255467055398	1
0	15904	2037.591322229417	1
0	15930	2039.091322229417	1
0	15947	2040.591322229417	1
0	15956	2042.091322229417	1
0	16075	2057.815092418708	1
0	16097	2059.315092418708	1
0	16109	2060.815092418708	1
0	16123	2062.315092418708	1
0	16166	2071.400430896791	1
0	16220	2083.938623570347	1
0	16252	2087.556277012664	1
0	16261	2089.056277012664	1
0	16291	2092.897486307254	1
0	16305	2094.397486307254	1
0	16332	2096.303195923214	1
0	16346	2097.803195923214	1
0	16355	2099.303195923214	1
0	16418	2106.307371582705	1
0	16464	2112.421487124778	1
0	16481	2113.921487124778	1
0	16527	2120.496583531565	1
0	16610	2126.825603009635	1
0	16627	2129.929201581285	1
0	16640	2131.429201581285	1
0	16656	2132.929201581285	1
0	16670	2134.429201581285	1
0	16684	2135.929201581285	1
0	16698	2137.429201581285	1
0	16722	2138.929201581285	1
0	16731	2140.429201581285	1
0	16753	2142.075722578193	1
0	16770	2145.386081879699	1
0	16783	2146.886081879699	1
0	16792	2148.386081879699	1
0	16846	2154.544845845984	1
0	16923	2162.918180570861	1
0	16965	2168.828997488495	1
0	16987	2171.16228157855	1
0	17001	2173.314912667718	1
0	17089	2192.257026993797	1
0	17092	2193.757026993797	1
0	17106	2196.906515768794	1
0	17119	2198.406515768794	1
0	17154	2201.957424772879	1
0	17171	2203.457424772879	1
0	17193	2205.578691410326	1
0	17220	2210.56806128243	1
0	17237	2212.06806128243	1
0	17251	2214.297332623856	1
0	17277	2217.99795823676	1
0	17314	2224.112672631245	1
0	17393	2236.27884423687	1
0	17440	2240.483222807091	1
0	17454	2241.983222807091	1
0	17463	2243.483222807091	1
0	17471	2244.983222807091	1
0	17474	2246.483222807091	1
0	17482	2247.983222807091	1
0	17498	2249.483222807091	1
0	17534	2253.570747211957	1
0	17550	2255.070747211957	1
0	17559	2256.570747211957	1
0	17570	2258.070747211957	1
0	17621	2264.708571372017	1
0	17648	2266.208571372017	1
0	17660	2267.708571372017	1
0	17693	2269.629656348602	1
0	17707	2271.129656348602	1
0	17713	2272.629656348602	1
0	17721	2274.129656348602	1
0	17732	2275.629656348602	1
0	17738	2277.129656348602	1
0	17741	2278.629656348602	1
0	17864	2293.152390332814	1
0	17886	2295.540984431956	1
0	17949	2303.187377895483	1
0	17966	2304.687377895483	1
0	17972	2306.187377895483	1
0	17996	2311.971512215818	1
0	18035	2316.58612082169	1
0	18057	2319.762691124935	1
0	18085	2323.188368788508	1
0	18101	2327.82371046499	1
0	18134	2330.660326529352	1
0	18148	2332.160326529352	1
0	18164	2334.114869148248	1
0	18239	2342.347531690159	1
0	18244	2343.847531690159	1
0	18247	2345.347531690159	1
0	18288	2350.214154284182	1
0	18393	2366.872845286051	1
0	18401	2368.372845286051	1
0	18420	2372.530899125504	1
0	18474	2380.389731801084	1
0	18497	2383.486798373216	1
0	18513	2385.55362344613	1
0	18522	2387.05362344613	1
0	18536	2388.699117340769	1
0	18551	2390.199117340769	1
0	18560	2391.699117340769	1
0	18571	2393.275263557384	1
0	18607	2398.403165850924	1
0	18618	2399.903165850924	1
0	18631	2401.403165850924	1
0	18653	2402.903165850924	1
0	18672	2404.403165850924	1
0	18686	2405.903165850924	1
0	18695	2407.403165850924	1
0	18708	2408.903165850924	1
0	18804	2421.517555399583	1
0	18816	2423.017555399583	1
0	18838	2427.496249275782	1
0	18876	2433.447462275479	1
0	18890	2434.947462275479	1
0	18906	2436.447462275479	1
0	18930	2437.947462275479	1
0	18955	2440.124158600857	1
0	18967	2441.624158600857	1
0	18973	2443.124158600857	1
0	18982	2444.682313228797	1
0	19008	2447.876798989454	1
0	19019	2449.376798989454	1
0	19039	2452.371900689614	1
0	19057	2453.871900689614	1
0	19071	2455.371900689614	1
0	19080	2456.871900689614	1
0	19099	2461.153143773556	1
0	19134	2463.432091300663	1
0	19143	2464.932091300663	1
0	19154	2466.432091300663	1
0	19189	2470.145264663835	1
0	19206	2471.645264663835	1
0	19220	2473.145264663835	1
0	19234	2476.005681307192	1
0	19269	2483.098579671664	1
0	19278	2484.598579671664	1
0	19338	2490.963878117332	1
0	19352	2492.463878117332	1
0	19371	2493.963878117332	1
0	19400	2498.308772660902	1
0	19427	2500.597674705162	1
0	19440	2502.097674705162	1
0	19454	2503.946302390493	1
0	19481	2507.831906502682	1
0	19525	2516.189987257799	1
0	19539	2517.689987257799	1
0	19550	2519.189987257799	1
0	19564	2522.305244402811	1
0	19607	2527.711563594644	1
0	19618	2529.211563594644	1
0	19630	2530.711563594644	1
0	19643	2532.211563594644	1
0	19652	2533.711563594644	1
0	19660	2535.211563594644	1
0	19671	2536.711563594644	1
0	19685	2539.914106544639	1
0	19708	2542.398623722837	1
0	19718	2543.954203692543	1
0	19734	2546.192504120713	1
0	19833	2561.028215700325	1
0	19866	2564.535281076866	1
0	19877	2566.035281076866	1
0	19910	2571.954678856819	1
0	19924	2573.454678856819	1
0	19951	2575.838887805263	1
0	19965	2577.338887805263	1
0	19981	2578.838887805263	1
0	19998	2580.338887805263	1
0	20013	2581.876580376561	1
0	20042	2585.392603583812	1
0	20056	2586.892603583812	1
0	20070	2589.734246144595	1
0	20135	2595.474816125137	1
0	20146	2596.974816125137	1
0	20160	2598.474816125137	1
0	20174	2599.974816125137	1
0	20183	2601.474816125137	1
0	20230	2606.204411748104	1
0	20246	2608.470320840966	1
0	20258	2610.162563746324	1
0	20279	2612.60142598599	1
0	20333	2617.968660866033	1
0	20350	2619.468660866033	1
0	20359	2620.968660866033	1
0	20394	2624.251716296958	1
0	20400	2625.751716296958	1
0	20480	2633.849559318206	1
0	20525	2639.158855269956	1
0	20576	2645.279892511498	1
0	20587	2648.481239235261	1
0	20600	2649.981239235261	1
0	20612	2651.481239235261	1
0	20620	2654.232703687267	1
0	20631	2657.710397910857	1
0	20639	2659.210397910857	1
0	20645	2660.710397910857	1
0	20664	2663.960103552501	1
0	20686	2667.950848258022	1
0	20714	2671.248342485291	1
0	20757	2682.253570267933	1
0	20773	2683.753570267933	1
0	20787	2685.253570267933	1
0	20796	2686.753570267933	1
0	20804	2688.253570267933	1
0	20834	2693.142577766484	1
0	20843	2694.642577766484	1
0	20913	2704.031130820186	1
0	20971	2709.349899062169	1
0	20988	2710.849899062169	1
0	21010	2712.778433196194	1
0	21018	2714.278433196194	1
0	21026	2715.778433196194	1
0	21032	2717.278433196194	1
0	21050	2718.778433196194	1
0	21072	2720.278433196194	1
0	21092	2721.778433196194	1
0	21106	2723.278433196194	1
0	21120	2724.778433196194	1
0	21134	2726.278433196194	1
0	21155	2727.778433196194	1
0	21177	2729.278433196194	1
0	21194	2730.778433196194	1
0	21203	2732.278433196194	1
0	21211	2733.778433196194	1
0	21222	2735.278433196194	1
0	21258	2739.979611444326	1
0	21281	2743.710737847555	1
0	21303	2747.528720268706	1
0	21331	2750.45215584373	1
0	21350	2751.95215584373	1
0	21362	2753.45215584373	1
0	21390	2756.572438667392	1
0	21436	2764.610230499487	1
0	21510	2770.518919683903	1
0	21519	2772.018919683903	1
0	21535	2773.518919683903	1
0	21546	2775.018919683903	1
0	21560	2776.518919683903	1
0	21574	2778.018919683903	1
0	21611	2784.000411650122	1
0	21626	2786.287492705212	1
0	21673	2791.245119275789	1
0	21710	2797.10843513001	1
0	21730	2799.129463342591	1
0	21739	2800.629463342591	1
0	21785	2806.683993748356	1
0	21807	2808.183993748356	1
0	21895	2819.99739891212	1
0	21924	2822.733579057844	1
0	21937	2824.233579057844	1
0	21978	2829.922532118246	1
0	21997	2831.422532118246	1
0	22028	2835.57075940959	1
0	22055	2839.035749183486	1
0	22061	2840.535749183486	1
0	22089	2845.6993844948	1
0	22119	2848.358440161857	1
0	22178	2852.861591098122	1
0	22250	2863.199383868696	1
0	22291	2868.604146648656	1
0	22347	2879.332627721084	1
0	22397	2887.318424371246	1
0	22410	2888.818424371246	1
0	22445	2891.195701671539	1
0	22479	2894.657862302047	1
0	22495	2896.738230176166	1
0	22529	2898.238230176166	1
0	22549	2899.738230176166	1
0	22561	2901.238230176166	1
0	22618	2909.660786867251	1
0	22635	2911.320302279076	1
0	22653	2913.632846127609	1
0	22682	2918.589522328305	1
0	22718	2921.771825730054	1
0	22744	2926.122096209423	1
0	22771	2930.320884237921	1
0	22811	2934.748156235626	1
0	22864	2941.452268139009	1
0	22872	2942.952268139009	1
0	22880	2944.452268139009	1
0	22891	2945.952268139009	1
0	22910	2947.452268139009	1
0	22934	2948.952268139009	1
0	22948	2950.452268139009	1
0	22998	2954.079776817167	1
0	23017	2955.579776817167	1
0	23031	2957.079776817167	1
0	23048	2958.748371157015	1
0	23081	2963.008320006129	1
0	23093	2964.508320006129	1
0	23154	2973.622487352984	1
0	23171	2975.122487352984	1
0	23203	2976.899364801031	1
0	23218	2978.399364801031	1
0	23235	2979.899364801031	1
0	23255	2982.748147274217	1
0	23268	2984.248147274217	1
0	23294	2985.976150771484	1
0	23314	2987.476150771484	1
0	23325	2988.976150771484	1
0	23333	2990.476150771484	1
0	23344	2991.976150771484	1
0	23355	2993.476150771484	1
0	23374	2994.976150771484	1
0	23396	2996.476150771484	1
0	23413	2997.976150771484	1
0	23495	3006.944635270612	1
0	23509	3008.444635270612	1
0	23518	3009.944635270612	1
0	23534	3012.100586682646	1
0	23548	3013.600586682646	1
0	23562	3015.100586682646	1
0	23576	3016.811487174175	1
0	23590	3018.572577258358	1
0	23607	3020.51585291553	1
0	23700	3033.075806748547	1
0	23723	3034.575806748547	1
0	23743	3036.075806748547	1
0	23752	3037.575806748547	1
0	23773	3039.075806748547	1
0	23800	3040.575806748547	1
0	23820	3042.075806748547	1
0	23829	3043.575806748547	1
0	23931	3058.560433008192	1
0	23966	3062.189703685451	1
0	23980	3063.689703685451	1
0	23994	3065.189703685451	1
0	24008	3067.13065383234	1
0	24034	3068.708923401844	1
0	24043	3070.208923401844	1
0	24054	3071.708923401844	1
0	24071	3073.208923401844	1
0	24085	3075.395513162461	1
0	24109	3077.60245683118	1
0	24126	3079.386645484903	1
0	24142	3081.559404280879	1
0	24163	3085.403269896163	1
0	24211	3093.774248820928	1
0	24226	3095.6958728855	1
0	24244	3097.345655168487	1
0	24263	3098.845655168487	1
0	24272	3100.345655168487	1
0	24341	3109.906036757627	1
0	24358	3111.636829978802	1
0	24421	3120.725701237366	1
0	24461	3124.340970139076	1
0	24497	3131.167797374122	1
0	24513	3132.667797374122	1
0	24599	3142.98877287462	1
0	24613	3145.472755554895	1
0	24645	3149.875616966139	1
0	24669	3151.375616966139	1
0	24703	3154.156989765344	1
0	24709	3155.656989765344	1
0	24733	3157.567094260052	1
0	24766	3161.503003043696	1
0	24805	3165.180984137962	1
0	24875	3170.468837473782	1
0	24884	3171.968837473782	1
0	24918	3178.183064369769	1
0	24938	3180.633562557045	1
0	24962	3183.035773767913	1
0	25047	3193.097550399725	1
0	25093	3197.716874195339	1
0	25123	3199.216874195339	1
0	25143	3200.716874195339	1
0	25162	3202.216874195339	1
0	25171	3203.716874195339	1
0	25182	3205.216874195339	1
0	25257	3216.500657184564	1
0	25265	3218.000657184564	1
0	25305	3222.678460635844	1
0	25335	3225.208916841578	1
0	25432	3237.759945640173	1
0	25448	3239.259945640173	1
0	25465	3240.759945640173	1
0	25479	3242.259945640173	1
0	25494	3245.721161559934	1
0	25515	3249.514493535993	1
0	25548	3253.423917719269	1
0	25647	3268.040753532359	1
0	25658	3269.540753532359	1
0	25686	3273.9661678102	1
0	25704	3275.4661678102	1
0	25746	3280.986870428863	1
0	25813	3289.690311816861	1
0	25829	3291.833793772293	1
0	25850	3293.992975065218	1
0	25864	3295.492975065218	1
0	25880	3296.992975065218	1
0	25892	3298.492975065218	1
0	25929	3303.710037612003	1
0	25941	3305.210037612003	1
0	26000	3313.436128562663	1
0	26024	3314.936128562663	1
0	26039	3316.436128562663	1
0	26061	3317.936128562663	1
0	26080	3319.436128562663	1
0	26092	3320.936128562663	1
0	26144	3324.748009421537	1
0	26158	3326.248009421537	1
0	26177	3327.748009421537	1
0	26186	3329.248009421537	1
0	26213	3333.154313915208	1
0	26222	3334.654313915208	1
0	26246	3338.536714838036	1
0	26264	3341.324476193597	1
0	26290	3345.040920616269	1
0	26312	3349.821896904864	1