version 3
run k_MM1_rand-15-20221127-16:03:21-5740
attr configname k_MM1_rand
attr datetime 20221127-16:03:21
attr datetimef 20221127-160321
attr experiment k_MM1_rand
attr inifile omnetpp.ini
attr iterationvars "$time=1.5, $num=5, $0=33434, $1=56673, $2=23567"
attr iterationvarsd time=1.5/num=5/33434/56673/23567
attr iterationvarsf time=1.5,num=5,33434,56673,23567-
attr measurement "$time=1.5, $num=5, $0=33434, $1=56673, $2=23567"
attr network randkMM1
attr processid 5740
attr repetition 3
attr replication #3
attr resultdir results
attr runnumber 15
attr seedset 15
itervar num 5
itervar time 1.5
config description "MM1 module k-times random"
config network randkMM1
config **.source.interArrivalTime "truncnormal(0.5s, 1.5s)"
config **.serviceTime 1.5s
config **.c 5
config **.capacity 10000
config record-eventlog false
config **.scalar-recording true
config **.vector-recording true
config repeat 4
config seed-1-mt 33434
config seed-2-mt 56673
config seed-3-mt 23567
config output-vector-file k_MM1_rand-5-1.5-results/3.vec
config output-scalar-file k_MM1_rand-5-1.5-results/3.sca

vector 0 randkMM1.mm1[3] util:vector ETV
attr interpolationmode none
attr recordingmode vector
attr title resources
vector 1 randkMM1.mm1[0] util:vector ETV
attr interpolationmode none
attr recordingmode vector
attr title resources
vector 2 randkMM1.mm1[2] queueLength:vector ETV
attr interpolationmode none
attr recordingmode vector
attr title "queue length"
vector 3 randkMM1.mm1[0] queueLength:vector ETV
attr interpolationmode none
attr recordingmode vector
attr title "queue length"
vector 4 randkMM1.mm1[2] util:vector ETV
attr interpolationmode none
attr recordingmode vector
attr title resources
vector 5 randkMM1.mm1[4] util:vector ETV
attr interpolationmode none
attr recordingmode vector
attr title resources
vector 6 randkMM1.mm1[4] queueLength:vector ETV
attr interpolationmode none
attr recordingmode vector
attr title "queue length"
vector 7 randkMM1.mm1[1] util:vector ETV
attr interpolationmode none
attr recordingmode vector
attr title resources
vector 8 randkMM1.mm1[1] queueLength:vector ETV
attr interpolationmode none
attr recordingmode vector
attr title "queue length"
vector 9 randkMM1.mm1[3] queueLength:vector ETV
attr interpolationmode none
attr recordingmode vector
attr title "queue length"
0	6	11.5	1
0	40	15.112304389001	1
0	72	19.011311398443	1
0	99	22.297162675766	1
0	168	32.227389671103	1
0	205	38.220799465093	1
0	231	40.374079347614	1
0	251	41.874079347614	1
0	265	43.374079347614	1
0	286	46.19985313815	1
0	300	47.69985313815	1
0	359	52.437481512179	1
0	376	53.937481512179	1
0	447	62.479756841478	1
0	484	65.639480523042	1
0	573	77.341915167796	1
0	693	90.359909457501	1
0	715	94.281855479881	1
0	748	99.831757891025	1
0	759	101.331757891025	1
0	778	102.831757891025	1
0	787	104.331757891025	1
0	800	105.831757891025	1
0	814	107.331757891025	1
0	823	108.831757891025	1
0	842	110.426859675755	1
0	880	114.19472651994	1
0	897	119.524368428673	1
0	918	121.804990074182	1
0	930	123.304990074182	1
0	933	124.804990074182	1
0	957	128.593947186925	1
0	1002	136.866165102012	1
0	1018	138.366165102012	1
0	1027	139.866165102012	1
0	1046	141.747921699578	1
0	1057	143.247921699578	1
0	1075	144.747921699578	1
0	1133	153.387456852475	1
0	1147	154.887456852475	1
0	1171	157.250586367087	1
0	1180	158.750586367087	1
0	1239	167.655259524146	1
0	1295	177.039837470413	1
0	1333	182.086930278744	1
0	1441	193.283727338344	1
0	1486	201.485238608153	1
0	1497	202.985238608153	1
0	1515	205.152815835274	1
0	1529	206.652815835274	1
0	1567	209.97315491384	1
0	1589	211.47315491384	1
0	1647	216.988885927494	1
0	1656	218.488885927494	1
0	1760	235.220252467035	1
0	1782	238.448715077782	1
0	1828	242.440557027834	1
0	1850	243.940557027834	1
0	1883	246.261611155502	1
0	1936	253.600871367514	1
0	1958	255.337341416096	1
0	1967	256.837341416096	1
0	1986	258.838921877284	1
0	1998	260.338921877284	1
0	2068	269.651565186904	1
0	2082	271.151565186904	1
0	2093	272.651565186904	1
0	2123	278.327058049913	1
0	2147	279.863090634986	1
0	2167	281.363090634986	1
0	2184	283.141496686366	1
0	2222	290.058096603721	1
0	2231	291.558096603721	1
0	2260	297.855141538959	1
0	2287	299.355141538959	1
0	2304	300.855141538959	1
0	2342	304.591349533132	1
0	2359	306.091349533132	1
0	2375	307.591349533132	1
0	2392	309.091349533132	1
0	2406	310.591349533132	1
0	2431	314.237377748652	1
0	2445	315.787727343727	1
0	2467	317.455584599629	1
0	2486	318.955584599629	1
0	2505	320.565520316706	1
0	2528	323.269940374706	1
0	2544	324.769940374706	1
0	2560	326.269940374706	1
0	2569	327.769940374706	1
0	2581	331.719104065898	1
0	2596	333.687109705612	1
0	2605	335.187109705612	1
0	2673	346.125867630959	1
0	2697	347.625867630959	1
0	2714	349.125867630959	1
0	2731	350.829795130083	1
0	2749	352.329795130083	1
0	2761	353.829795130083	1
0	2791	356.70747246299	1
0	2811	360.669303192527	1
0	2843	362.699800642693	1
0	2862	364.199800642693	1
0	2874	365.699800642693	1
0	2887	367.199800642693	1
0	2901	368.699800642693	1
0	2925	370.199800642693	1
0	2937	371.699800642693	1
0	2946	373.199800642693	1
0	2981	377.845442703932	1
0	3001	379.345442703932	1
0	3009	380.845442703932	1
0	3047	386.643118074835	1
0	3059	388.143118074835	1
0	3072	389.643118074835	1
0	3105	394.853868919444	1
0	3120	396.908759072952	1
0	3154	399.754970689736	1
0	3171	401.254970689736	1
0	3177	402.754970689736	1
0	3201	406.268204958705	1
0	3235	410.575263786758	1
0	3280	413.03262298755	1
0	3337	420.589399393501	1
0	3366	425.334421551622	1
0	3380	426.834421551622	1
0	3394	428.464458336631	1
0	3478	438.486010805084	1
0	3541	443.032580807945	1
0	3581	446.995580761624	1
0	3597	448.495580761624	1
0	3657	453.204244712556	1
0	3669	454.704244712556	1
0	3696	457.687854552247	1
0	3746	464.974397732552	1
0	3778	466.850459250136	1
0	3816	469.902684923802	1
0	3833	471.402684923802	1
0	3847	472.902684923802	1
0	3877	476.444241426139	1
0	3891	477.944241426139	1
0	3934	483.872372113014	1
0	3960	487.159577063698	1
0	4020	493.326844754652	1
0	4070	498.435780454314	1
0	4086	499.935780454314	1
0	4106	501.435780454314	1
0	4125	504.417538523848	1
0	4153	508.967889796072	1
0	4170	510.711655901452	1
0	4211	516.1576222725	1
0	4279	524.461285633016	1
0	4296	526.908963274123	1
0	4304	528.408963274123	1
0	4346	534.317602315458	1
0	4448	545.266461607833	1
0	4506	549.830869534148	1
0	4529	551.519050562044	1
0	4563	553.019050562044	1
0	4591	555.254155051876	1
0	4625	558.01781870679	1
0	4642	559.51781870679	1
0	4670	562.764986871356	1
0	4678	564.264986871356	1
0	4689	565.764986871356	1
0	4719	570.152662322439	1
0	4741	572.728977017182	1
0	4796	579.947582476877	1
0	4818	581.962246764456	1
0	4856	585.054940396694	1
0	4873	586.554940396694	1
0	4900	589.855164528948	1
0	4928	592.523962388244	1
0	4969	596.819218120151	1
0	4991	598.319218120151	1
0	5018	601.51065674513	1
0	5032	603.01065674513	1
0	5046	604.51065674513	1
0	5074	610.037254062896	1
0	5094	613.807380860458	1
0	5110	617.134315533307	1
0	5142	619.382254974232	1
0	5168	620.882254974232	1
0	5236	628.40872527889	1
0	5255	629.90872527889	1
0	5274	631.40872527889	1
0	5291	632.90872527889	1
0	5302	634.40872527889	1
0	5332	638.010836202601	1
0	5341	639.510836202601	1
0	5418	650.904581416643	1
0	5451	654.213793981791	1
0	5473	656.561181578823	1
0	5531	662.763756210879	1
0	5611	674.543166877579	1
0	5648	678.113056637266	1
0	5665	679.613056637266	1
0	5671	681.113056637266	1
0	5679	682.613056637266	1
0	5716	687.538596685452	1
0	5738	692.300802273578	1
0	5758	694.698878574949	1
0	5777	696.198878574949	1
0	5794	697.698878574949	1
0	5808	699.198878574949	1
0	5814	700.698878574949	1
0	5918	712.737082440289	1
0	5934	714.237082440289	1
0	5946	715.737082440289	1
0	5954	717.237082440289	1
0	6000	721.303787656994	1
0	6009	722.803787656994	1
0	6045	727.081578693155	1
0	6058	728.581578693155	1
0	6072	730.081578693155	1
0	6091	731.581578693155	1
0	6110	733.081578693155	1
0	6127	734.581578693155	1
0	6151	736.081578693155	1
0	6165	737.581578693155	1
0	6195	739.366155537674	1
0	6210	740.866155537674	1
0	6234	743.502354085389	1
0	6265	746.568642198222	1
0	6306	749.657756458178	1
0	6342	753.283722448168	1
0	6359	754.783722448168	1
0	6377	756.283722448168	1
0	6413	759.759189917282	1
0	6437	761.259189917282	1
0	6454	762.759189917282	1
0	6468	764.259189917282	1
0	6482	765.759189917282	1
0	6522	769.844735679146	1
0	6542	771.344735679146	1
0	6569	772.844735679146	1
0	6592	775.598151808665	1
0	6622	781.896531631346	1
0	6650	784.059522394883	1
0	6661	785.559522394883	1
0	6710	790.692621353687	1
0	6740	792.660066154184	1
0	6770	794.585153259398	1
0	6787	796.085153259398	1
0	6793	797.585153259398	1
0	6854	806.729628577468	1
0	6865	808.229628577468	1
0	6881	809.967025381226	1
0	6904	816.005559783169	1
0	6991	834.123985772542	1
0	7024	839.503738071526	1
0	7032	841.003738071526	1
0	7051	844.191606747879	1
0	7073	846.418235085205	1
0	7100	848.255191091093	1
0	7112	849.755191091093	1
0	7163	857.964161954345	1
0	7190	861.816489230875	1
0	7216	865.188310001954	1
0	7225	866.688310001954	1
0	7234	869.098643423108	1
0	7277	877.371501467456	1
0	7360	886.43542105535	1
0	7415	894.291995251375	1
0	7466	900.259843899032	1
0	7490	901.759843899032	1
0	7504	903.259843899032	1
0	7521	904.759843899032	1
0	7535	906.259843899032	1
0	7541	907.759843899032	1
0	7554	909.259843899032	1
0	7563	910.759843899032	1
0	7587	914.430749756645	1
0	7631	919.252151105099	1
0	7651	922.503093325893	1
0	7716	931.59251470409	1
0	7755	935.846269175797	1
0	7814	944.37591893455	1
0	7864	948.266650734855	1
0	7881	949.766650734855	1
0	7899	953.492827160303	1
0	7931	957.708445242073	1
0	7945	959.208445242073	1
0	8035	969.150151508735	1
0	8044	970.650151508735	1
0	8063	972.33882087723	1
0	8077	973.83882087723	1
0	8101	975.811060527356	1
0	8115	977.311060527356	1
0	8132	978.811060527356	1
0	8191	991.736593472999	1
0	8211	993.331047634671	1
0	8225	994.831047634671	1
0	8234	996.331047634671	1
0	8256	998.983433840166	1
0	8355	1016.419563414657	1
0	8482	1034.89288799421	1
0	8492	1036.39288799421	1
0	8501	1037.89288799421	1
0	8520	1042.361043096954	1
0	8550	1047.12095257645	1
0	8592	1052.693012870994	1
0	8626	1055.933304289114	1
0	8638	1057.433304289114	1
0	8712	1064.246954459129	1
0	8734	1066.198194181824	1
0	8753	1067.698194181824	1
0	8762	1069.198194181824	1
0	8801	1073.918370783781	1
0	8812	1075.418370783781	1
0	8825	1076.918370783781	1
0	8839	1080.509970549248	1
0	8871	1085.595472565726	1
0	8883	1087.095472565726	1
0	8922	1094.869163386615	1
0	8933	1096.369163386615	1
0	8954	1098.297807748255	1
0	8965	1099.797807748255	1
0	9012	1105.895332601934	1
0	9053	1109.464768683852	1
0	9072	1110.964768683852	1
0	9084	1112.464768683852	1
0	9093	1114.054662490378	1
0	9186	1127.115605539525	1
0	9204	1128.615605539525	1
0	9221	1130.115605539525	1
0	9262	1133.83640757749	1
0	9271	1135.33640757749	1
0	9287	1136.83640757749	1
0	9309	1138.33640757749	1
0	9323	1139.83640757749	1
0	9331	1141.33640757749	1
0	9411	1155.042602278129	1
0	9428	1157.852717536188	1
0	9439	1159.352717536188	1
0	9491	1165.482724228581	1
0	9500	1166.982724228581	1
0	9515	1169.288839523882	1
0	9538	1173.913925097576	1
0	9551	1175.413925097576	1
0	9603	1181.481880915487	1
0	9625	1183.122505422609	1
0	9679	1187.741092378941	1
0	9699	1189.241092378941	1
0	9724	1191.326123343938	1
0	9743	1192.826123343938	1
0	9752	1194.326123343938	1
0	9765	1195.826123343938	1
0	9789	1197.326123343938	1
0	9801	1198.826123343938	1
0	9822	1200.326123343938	1
0	9839	1201.826123343938	1
0	9917	1212.618827018068	1
0	9934	1214.842697807346	1
0	9947	1216.342697807346	1
0	9961	1219.148303863641	1
0	9990	1222.784310574651	1
0	10023	1226.62784505927	1
0	10051	1229.538580289139	1
0	10063	1231.038580289139	1
0	10077	1232.559277271743	1
0	10104	1239.654413850017	1
0	10150	1244.744740428154	1
0	10174	1247.141507899038	1
0	10225	1251.974761529653	1
0	10252	1256.91437807907	1
0	10258	1258.41437807907	1
0	10266	1259.91437807907	1
0	10277	1261.41437807907	1
0	10300	1263.308224048634	1
0	10345	1269.072676897839	1
0	10381	1272.633783440567	1
0	10418	1276.196301234799	1
0	10423	1277.696301234799	1
0	10431	1279.196301234799	1
0	10437	1280.696301234799	1
0	10462	1283.511847478593	1
0	10472	1285.011847478593	1
0	10488	1286.511847478593	1
0	10507	1288.011847478593	1
0	10524	1289.511847478593	1
0	10533	1291.011847478593	1
0	10541	1292.511847478593	1
0	10577	1297.909403780756	1
0	10599	1301.509751520391	1
0	10626	1305.540514850095	1
0	10635	1307.040514850095	1
0	10682	1316.281906581381	1
0	10721	1322.201457879602	1
0	10747	1326.921695671255	1
0	10756	1328.421695671255	1
0	10791	1332.655308271494	1
0	10806	1334.613393949363	1
0	10841	1343.418417597757	1
0	10863	1345.387573640858	1
0	10879	1347.158625822333	1
0	10931	1356.469885446872	1
0	10961	1359.132287479039	1
0	10978	1360.632287479039	1
0	10996	1365.312248921184	1
0	11018	1367.908873359994	1
0	11050	1373.139014677925	1
0	11093	1378.489166426603	1
0	11116	1381.366864762275	1
0	11156	1386.284354063096	1
0	11165	1387.784354063096	1
0	11212	1395.261477025692	1
0	11238	1398.565073553333	1
0	11286	1403.870849449938	1
0	11292	1405.370849449938	1
0	11304	1408.418533658631	1
0	11330	1412.376608061514	1
0	11338	1413.876608061514	1
0	11349	1415.376608061514	1
0	11363	1416.876608061514	1
0	11374	1418.376608061514	1
0	11393	1419.876608061514	1
0	11420	1421.376608061514	1
0	11439	1422.876608061514	1
0	11456	1424.376608061514	1
0	11508	1430.501282204328	1
0	11523	1432.001282204328	1
0	11534	1434.069436029743	1
0	11583	1442.69585388611	1
0	11616	1446.487479889269	1
0	11630	1447.987479889269	1
0	11688	1458.483065062284	1
0	11715	1461.957275248009	1
0	11734	1464.522693287649	1
0	11759	1467.419852070042	1
0	11787	1473.384091562931	1
0	11798	1476.435053863323	1
0	11826	1479.590319012055	1
0	11889	1487.150511861428	1
0	11905	1488.650511861428	1
0	11938	1492.892814269176	1
0	11952	1495.504137532025	1
0	11965	1497.004137532025	1
0	12013	1504.766394249103	1
0	12232	1531.757138912955	1
0	12241	1533.257138912955	1
0	12254	1537.173062837068	1
0	12278	1538.673062837068	1
0	12300	1540.173062837068	1
0	12314	1541.673062837068	1
0	12328	1543.173062837068	1
0	12345	1544.673062837068	1
0	12371	1546.173062837068	1
0	12396	1547.673062837068	1
0	12418	1549.173062837068	1
0	12440	1550.673062837068	1
0	12462	1552.173062837068	1
0	12474	1553.673062837068	1
0	12556	1561.563188252726	1
0	12584	1565.486965632558	1
0	12691	1576.567101216116	1
0	12705	1578.067101216116	1
0	12716	1579.567101216116	1
0	12730	1581.067101216116	1
0	12741	1582.567101216116	1
0	12765	1584.247414190326	1
0	12777	1585.747414190326	1
0	12793	1587.375953962517	1
0	12855	1596.550463583202	1
0	12888	1600.833666871538	1
0	12898	1603.268785829622	1
0	12910	1605.906693648057	1
0	12931	1609.37302676293	1
0	12954	1614.018677771662	1
0	12969	1615.847575669564	1
0	12990	1617.347575669564	1
0	13002	1618.847575669564	1
0	13059	1627.546237866893	1
0	13071	1629.046237866893	1
0	13101	1632.32555564469	1
0	13107	1633.82555564469	1
0	13118	1638.024731829984	1
0	13157	1643.583684788997	1
0	13175	1645.083684788997	1
0	13194	1646.583684788997	1
0	13208	1648.083684788997	1
0	13230	1649.583684788997	1
0	13249	1651.083684788997	1
0	13268	1652.583684788997	1
0	13282	1654.083684788997	1
0	13301	1655.583684788997	1
0	13326	1658.160315881575	1
0	13340	1659.660315881575	1
0	13359	1661.160315881575	1
0	13387	1665.618642001024	1
0	13416	1671.380470980755	1
0	13442	1673.29140362561	1
0	13524	1683.954985686726	1
0	13574	1689.193382813845	1
0	13618	1694.257596822271	1
0	13647	1698.437331913088	1
0	13691	1701.543120450941	1
0	13708	1703.043120450941	1
0	13737	1705.99449680946	1
0	13756	1707.861894144914	1
0	13825	1716.887132133642	1
0	13838	1718.387132133642	1
0	13857	1719.887132133642	1
0	13904	1726.281530492651	1
0	13919	1728.280901192715	1
0	13932	1730.148035808926	1
0	13975	1736.479345178868	1
0	13987	1737.979345178868	1
0	14009	1739.959726396667	1
0	14052	1744.582868521138	1
0	14080	1747.48058928368	1
0	14089	1748.98058928368	1
0	14097	1751.936835563485	1
0	14130	1759.471165966237	1
0	14182	1764.863031832747	1
0	14208	1769.2966296006	1
0	14229	1772.142517574375	1
0	14303	1787.989059118667	1
0	14317	1791.421591594133	1
0	14335	1792.921591594133	1
0	14350	1794.421591594133	1
0	14366	1796.590776233379	1
0	14393	1798.242804712883	1
0	14457	1803.933310380416	1
0	14473	1805.433310380416	1
0	14521	1813.426853530336	1
0	14537	1815.181737117827	1
0	14548	1816.875812699503	1
0	14551	1818.375812699503	1
0	14576	1822.926860078356	1
0	14630	1831.804255226941	1
0	14641	1833.304255226941	1
0	14647	1834.804255226941	1
0	14772	1850.526487586012	1
0	14786	1852.026487586012	1
0	14856	1859.600955975892	1
0	14929	1867.026367550756	1
0	14949	1868.930093154218	1
0	14980	1871.538262151069	1
0	14999	1873.423070678927	1
0	15076	1887.52485664739	1
0	15181	1904.085099040202	1
0	15194	1905.585099040202	1
0	15260	1912.866831610894	1
0	15301	1917.418231247088	1
0	15307	1918.918231247088	1
0	15329	1920.796444804799	1
0	15396	1927.971343601585	1
0	15413	1929.471343601585	1
0	15430	1930.971343601585	1
0	15444	1932.471343601585	1
0	15455	1933.971343601585	1
0	15464	1935.471343601585	1
0	15532	1943.664601988925	1
0	15541	1945.164601988925	1
0	15560	1947.056265494514	1
0	15571	1949.812594562161	1
0	15583	1951.504760219928	1
0	15656	1962.79869857507	1
0	15670	1965.009399422841	1
0	15687	1966.617461155991	1
0	15716	1968.455437559288	1
0	15735	1970.88112438997	1
0	15744	1972.38112438997	1
0	15755	1973.88112438997	1
0	15761	1975.38112438997	1
0	15840	1985.06433829042	1
0	15922	1998.194955864341	1
0	15945	2003.11785939891	1
0	15973	2008.883972274852	1
0	16080	2017.125850194233	1
0	16126	2026.690953186322	1
0	16144	2030.077672050101	1
0	16181	2034.330312697406	1
0	16226	2042.904450157138	1
0	16239	2044.404450157138	1
0	16291	2052.197354839346	1
0	16310	2053.697354839346	1
0	16329	2055.197354839346	1
0	16353	2056.697354839346	1
0	16365	2058.197354839346	1
0	16386	2059.697354839346	1
0	16415	2062.073040385506	1
0	16426	2063.573040385506	1
0	16442	2065.073040385506	1
0	16456	2066.573040385506	1
0	16467	2068.073040385506	1
0	16534	2079.046267059478	1
0	16550	2082.219694918238	1
0	16596	2086.264340868469	1
0	16613	2087.764340868469	1
0	16693	2096.860135924674	1
0	16707	2098.360135924674	1
0	16716	2099.860135924674	1
0	16747	2103.121259821704	1
0	16763	2104.621259821704	1
0	16775	2106.121259821704	1
0	16786	2107.621259821704	1
0	16852	2114.144335213022	1
0	16880	2115.79802335711	1
0	16911	2117.788944934423	1
0	16936	2119.288944934423	1
0	16958	2120.788944934423	1
0	16987	2124.310817820656	1
0	17048	2131.88149432756	1
0	17079	2136.998651662443	1
0	17100	2140.469541978679	1
0	17154	2151.04359246057	1
0	17168	2152.54359246057	1
0	17283	2164.563919842058	1
0	17298	2166.063919842058	1
0	17353	2175.628341823185	1
0	17396	2178.927824929712	1
0	17410	2180.427824929712	1
0	17443	2184.283493138227	1
0	17501	2192.825717502217	1
0	17515	2194.325717502217	1
0	17541	2200.323117752071	1
0	17562	2203.592762751522	1
0	17617	2213.542298740346	1
0	17633	2215.042298740346	1
0	17652	2216.542298740346	1
0	17671	2218.042298740346	1
0	17680	2219.542298740346	1
0	17691	2221.042298740346	1
0	17716	2224.864851046625	1
0	17728	2226.496864041547	1
0	17767	2229.802961826597	1
0	17802	2234.301731982115	1
0	17820	2236.49444482593	1
0	17829	2237.99444482593	1
0	17907	2246.584979975364	1
0	17916	2248.084979975364	1
0	17927	2249.584979975364	1
0	17936	2251.084979975364	1
0	17952	2252.91111303268	1
0	17961	2254.41111303268	1
0	17981	2258.059273713923	1
0	17992	2260.124995585383	1
0	18066	2273.033601686086	1
0	18117	2282.400042162854	1
0	18133	2283.900042162854	1
0	18144	2285.400042162854	1
0	18158	2286.900042162854	1
0	18167	2288.400042162854	1
0	18180	2289.900042162854	1
0	18257	2300.086259331558	1
0	18274	2301.586259331558	1
0	18312	2307.146238612685	1
0	18387	2318.958693492003	1
0	18398	2320.458693492003	1
0	18488	2331.509813806011	1
0	18524	2334.823487318007	1
0	18541	2341.19410581403	1
0	18608	2347.602419371773	1
0	18648	2351.09126480697	1
0	18672	2353.278592308646	1
0	18686	2354.778592308646	1
0	18695	2356.278592308646	1
0	18717	2358.560232365007	1
0	18729	2360.060232365007	1
0	18765	2362.73999001294	1
0	18779	2364.23999001294	1
0	18793	2365.73999001294	1
0	18815	2367.23999001294	1
0	18827	2368.73999001294	1
0	18843	2370.653699766692	1
0	18854	2372.153699766692	1
0	18899	2379.457129408257	1
0	18910	2380.957129408257	1
0	18931	2384.302460044139	1
0	18955	2385.802460044139	1
0	18972	2387.302460044139	1
0	19042	2398.525734664347	1
0	19069	2401.966504777564	1
0	19112	2407.237819629894	1
0	19124	2408.737819629894	1
0	19151	2412.759454931474	1
0	19167	2414.259454931474	1
0	19176	2415.759454931474	1
0	19187	2417.259454931474	1
0	19237	2426.657374794814	1
0	19248	2428.157374794814	1
0	19267	2431.862115402505	1
0	19307	2436.590333797861	1
0	19324	2438.090333797861	1
0	19349	2440.264416199993	1
0	19358	2441.764416199993	1
0	19382	2446.558945349857	1
0	19393	2448.058945349857	1
0	19402	2449.558945349857	1
0	19424	2451.73194287494	1
0	19466	2458.842242501896	1
0	19489	2460.768288516988	1
0	19531	2466.92613977759	1
0	19544	2468.42613977759	1
0	19566	2469.92613977759	1
0	19595	2472.926267971266	1
0	19619	2476.190090469917	1
0	19633	2477.690090469917	1
0	19654	2480.440597582774	1
0	19668	2481.940597582774	1
0	19695	2484.969146906871	1
0	19709	2486.469146906871	1
0	19718	2487.969146906871	1
0	19726	2489.469146906871	1
0	19772	2493.389204861625	1
0	19793	2495.85270940196	1
0	19807	2499.569206282261	1
0	19822	2501.307216139646	1
0	19833	2502.807216139646	1
0	19893	2514.176993421014	1
0	19907	2515.676993421014	1
0	19921	2517.176993421014	1
0	19954	2520.816048240755	1
0	19992	2525.836039531127	1
0	20006	2527.336039531127	1
0	20017	2528.836039531127	1
0	20031	2530.336039531127	1
0	20042	2531.836039531127	1
0	20051	2533.336039531127	1
0	20059	2535.257223520816	1
0	20081	2536.825793577733	1
0	20095	2538.325793577733	1
0	20109	2539.825793577733	1
0	20127	2542.623826668746	1
0	20138	2544.123826668746	1
0	20147	2545.623826668746	1
0	20155	2547.123826668746	1
0	20161	2548.623826668746	1
0	20185	2552.762670901102	1
0	20209	2554.262670901102	1
0	20289	2563.061365855647	1
0	20301	2564.561365855647	1
0	20354	2572.063891771794	1
0	20405	2579.327370166838	1
0	20422	2582.956808274833	1
0	20445	2586.347937834816	1
0	20489	2595.400162716883	1
0	20520	2599.310057686625	1
0	20542	2600.810057686625	1
0	20554	2602.310057686625	1
0	20570	2603.905814738305	1
0	20600	2605.532542227979	1
0	20632	2610.766963812316	1
0	20658	2615.480468563917	1
0	20714	2621.888048086101	1
0	20781	2629.397631611559	1
0	20806	2630.897631611559	1
0	20823	2632.397631611559	1
0	20872	2636.991884832332	1
0	20886	2638.491884832332	1
0	20908	2640.578186026628	1
0	20927	2642.452936321586	1
0	20977	2648.236987117057	1
0	21003	2650.922667171192	1
0	21113	2665.981932719974	1
0	21127	2669.833082231078	1
0	21142	2672.108365624935	1
0	21175	2676.947823142669	1
0	21197	2678.803516721771	1
0	21216	2680.303516721771	1
0	21233	2681.803516721771	1
0	21263	2688.404515715127	1
0	21284	2689.904515715127	1
0	21301	2691.404515715127	1
0	21318	2692.904515715127	1
0	21329	2694.404515715127	1
0	21343	2695.904515715127	1
0	21349	2697.404515715127	1
0	21362	2699.441902883199	1
0	21384	2702.003605086408	1
0	21395	2703.503605086408	1
0	21414	2706.228490356391	1
0	21433	2707.728490356391	1
0	21507	2714.717780119791	1
0	21527	2716.673061156011	1
0	21541	2718.543190373307	1
0	21583	2724.372572091383	1
0	21604	2726.402403251052	1
0	21659	2731.747118015064	1
0	21703	2737.464315068051	1
0	21719	2738.964315068051	1
0	21733	2740.464315068051	1
0	21761	2744.749170299212	1
0	21785	2748.293866337425	1
0	21805	2749.793866337425	1
0	21816	2751.293866337425	1
0	21871	2755.717421359288	1
0	21882	2757.217421359288	1
0	21888	2758.717421359288	1
0	21907	2761.272731774241	1
0	21915	2762.772731774241	1
0	21926	2764.272731774241	1
0	22011	2780.35417699606	1
0	22027	2781.85417699606	1
0	22044	2783.35417699606	1
0	22063	2784.85417699606	1
0	22074	2786.35417699606	1
0	22088	2787.85417699606	1
0	22102	2789.35417699606	1
0	22113	2790.85417699606	1
0	22119	2792.35417699606	1
0	22135	2795.21143769393	1
0	22172	2800.875600411147	1
0	22256	2810.143623742909	1
0	22289	2814.874543367688	1
0	22300	2816.374543367688	1
0	22364	2823.742898966843	1
0	22380	2826.108165962911	1
0	22440	2836.539068636786	1
0	22474	2840.883401910659	1
0	22506	2845.076870135057	1
0	22530	2846.576870135057	1
0	22542	2848.076870135057	1
0	22548	2849.576870135057	1
0	22562	2853.262594829347	1
0	22573	2854.762594829347	1
0	22599	2857.754875596739	1
0	22610	2859.254875596739	1
0	22627	2860.754875596739	1
0	22633	2862.254875596739	1
0	22646	2863.754875596739	1
0	22658	2865.254875596739	1
0	22701	2868.756900790054	1
0	22723	2870.256900790054	1
0	22745	2871.759631787998	1
0	22754	2873.259631787998	1
0	22762	2874.759631787998	1
0	22768	2876.259631787998	1
0	22847	2886.709703911178	1
0	22874	2889.433010957353	1
0	22906	2891.357739998029	1
0	22918	2892.857739998029	1
0	22932	2894.357739998029	1
0	22944	2895.857739998029	1
0	22952	2897.777564958417	1
0	22982	2901.757164805279	1
0	23127	2917.267521951671	1
0	23181	2921.332083062883	1
0	23206	2922.832083062883	1
0	23243	2926.483413066417	1
0	23322	2937.89341486589	1
0	23364	2944.050761487548	1
0	23436	2952.490390743785	1
0	23447	2954.611352798713	1
0	23502	2961.580082910842	1
0	23579	2971.315906366604	1
0	23595	2972.815906366604	1
0	23604	2974.315906366604	1
0	23647	2981.532875048912	1
0	23661	2983.032875048912	1
0	23667	2984.532875048912	1
0	23713	2988.873890293185	1
0	23737	2990.373890293185	1
0	23751	2991.873890293185	1
0	23827	3004.488584755075	1
0	23850	3006.021244675393	1
0	23867	3007.521244675393	1
0	23895	3011.06738376153	1
0	23910	3013.640779102199	1
0	23925	3015.401567533864	1
0	23934	3016.901567533864	1
0	23947	3019.125535342075	1
0	23966	3021.295288259513	1
0	23982	3022.795288259513	1
0	23999	3024.295288259513	1
0	24005	3025.795288259513	1
0	24016	3027.295288259513	1
0	24027	3028.795288259513	1
0	24040	3030.295288259513	1
0	24049	3031.795288259513	1
0	24057	3033.295288259513	1
0	24070	3034.795288259513	1
0	24092	3036.295288259513	1
0	24114	3037.795288259513	1
0	24166	3043.094479550057	1
0	24190	3044.594479550057	1
0	24205	3046.094479550057	1
0	24224	3047.594479550057	1
0	24260	3051.136105102718	1
0	24297	3055.133862404727	1
0	24327	3057.776513494296	1
0	24349	3059.698388112053	1
0	24369	3062.296729925842	1
0	24395	3064.303347392904	1
0	24414	3065.803347392904	1
0	24530	3078.003676009827	1
0	24552	3080.75014977285	1
0	24570	3084.13315518893	1
0	24580	3086.5585486478	1
0	24647	3099.163588111742	1
0	24673	3101.560854456164	1
0	24700	3103.060854456164	1
0	24719	3104.560854456164	1
0	24741	3106.060854456164	1
0	24758	3107.560854456164	1
0	24786	3109.388391223571	1
0	24801	3110.888391223571	1
0	24811	3113.635677509222	1
0	24844	3117.264825458007	1
0	24855	3119.770498753939	1
0	24890	3122.95261455379	1
0	24909	3124.45261455379	1
0	24954	3131.342491204285	1
0	24957	3132.842491204285	1
0	24975	3134.535263943062	1
0	24986	3136.035263943062	1
0	25005	3137.535263943062	1
0	25024	3139.035263943062	1
0	25038	3140.535263943062	1
0	25081	3144.512627784741	1
0	25116	3149.562394170771	1
0	25132	3151.457500279344	1
0	25148	3152.957500279344	1
0	25175	3154.856338302939	1
0	25197	3156.356338302939	1
0	25211	3157.856338302939	1
0	25230	3159.356338302939	1
0	25295	3168.546488618524	1
0	25307	3172.881436131171	1
0	25393	3183.524010172491	1
0	25407	3185.024010172491	1
0	25418	3186.524010172491	1
0	25437	3188.024010172491	1
0	25449	3189.524010172491	1
0	25462	3191.024010172491	1
0	25476	3192.524010172491	1
0	25485	3194.024010172491	1
0	25541	3199.540199418243	1
0	25570	3205.381957748312	1
0	25587	3209.00941761133	1
0	25605	3210.634243733748	1
0	25702	3223.849642139943	1
0	25720	3225.349642139943	1
0	25747	3226.849642139943	1
0	25764	3228.349642139943	1
0	25806	3234.520859336666	1
0	25834	3239.914918179609	1
0	25837	3241.414918179609	1
0	25851	3243.497721985898	1
0	25864	3244.997721985898	1
0	25922	3255.851956112326	1
0	25939	3258.639201209959	1
0	25965	3261.782889061259	1
0	25977	3263.282889061259	1
0	25993	3265.794400364219	1
0	26004	3267.294400364219	1
0	26015	3268.794400364219	1
0	26026	3270.294400364219	1
0	26053	3272.735150920922	1
0	26079	3274.235150920922	1
0	26091	3275.735150920922	1
0	26108	3277.235150920922	1
0	26120	3278.735150920922	1
0	26152	3280.830832228507	1
0	26169	3282.330832228507	1
0	26183	3285.192032331965	1
0	26208	3288.60494609105	1
0	26224	3291.557846753613	1
0	26247	3295.853270715511	1
0	26271	3298.085687178346	1
0	26277	3299.585687178346	1
0	26296	3302.144405957357	1
0	26309	3303.644405957357	1
0	26323	3305.144405957357	1
0	26345	3308.365316530232	1
0	26356	3309.865316530232	1
0	26369	3311.365316530232	1
0	26391	3312.865316530232	1
0	26400	3314.365316530232	1
0	26414	3315.865316530232	1
0	26425	3317.365316530232	1
0	26466	3321.657875389124	1
0	26485	3323.157875389124	1
0	26504	3324.657875389124	1
0	26521	3326.157875389124	1
0	26535	3327.657875389124	1
0	26541	3329.157875389124	1
0	26579	3334.117320338059	1
0	26675	3349.617999788565	1
0	26696	3351.117999788565	1
0	26705	3352.617999788565	1
0	26719	3354.117999788565	1
0	26728	3355.617999788565	1
0	26780	3363.772073735881	1
0	26824	3369.461390964615	1
0	26862	3374.125273555021	1
0	26892	3378.790453486673	1
0	26898	3380.290453486673	1
0	26946	3391.017727069217	1
0	27038	3406.261819709283	1
0	27047	3407.761819709283	1
0	27084	3412.004425068112	1
0	27096	3413.504425068112	1
0	27111	3416.246420430192	1
0	27127	3418.517395200099	1
0	27133	3420.017395200099	1
0	27154	3426.529461141385	1
0	27176	3429.32719057017	1
0	27193	3432.496912709195	1
0	27206	3433.996912709195	1
0	27217	3435.496912709195	1
0	27228	3436.996912709195	1
0	27282	3443.18612670721	1
0	27297	3444.68612670721	1
0	27305	3446.18612670721	1
0	27341	3453.079447236011	1
0	27360	3457.017099924662	1
0	27390	3460.615151061904	1
0	27407	3463.899910005978	1
0	27410	3465.399910005978	1
0	27462	3472.522361565287	1
0	27478	3476.247523965993	1
0	27501	3478.696800812449	1
0	27517	3482.521727451794	1
0	27535	3484.021727451794	1
0	27552	3485.521727451794	1