version 3
run k_MM1_lbqf-0-20221127-16:03:34-25264
attr configname k_MM1_lbqf
attr datetime 20221127-16:03:34
attr datetimef 20221127-160334
attr experiment k_MM1_lbqf
attr inifile omnetpp.ini
attr iterationvars "$time=1.0, $num=1, $0=53542, $1=75335, $2=34542"
attr iterationvarsd time=1.0/num=1/53542/75335/34542
attr iterationvarsf time=1.0,num=1,53542,75335,34542-
attr measurement "$time=1.0, $num=1, $0=53542, $1=75335, $2=34542"
attr network lbqfkMM1
attr processid 25264
attr repetition 0
attr replication #0
attr resultdir results
attr runnumber 0
attr seedset 0
itervar num 1
itervar time 1.0
config description "MM1 module k-times lbqf"
config network lbqfkMM1
config **.interArrivalTime "truncnormal(uniform(0.5s, 1.5s), uniform(0.25s, 0.75s))"
config **.serviceTime 1.0s
config **.c 1
config **.capacity 10000
config record-eventlog false
config **.scalar-recording true
config **.vector-recording true
config repeat 4
config seed-1-mt 53542
config seed-2-mt 75335
config seed-3-mt 34542
config output-vector-file k_MM1_lbqf-1-1.0-results/0.vec
config output-scalar-file k_MM1_lbqf-1-1.0-results/0.sca

vector 0 lbqfkMM1.mm1[0] queueLength:vector ETV
attr interpolationmode none
attr recordingmode vector
attr title "queue length"
vector 1 lbqfkMM1.mm1[0] util:vector ETV
attr interpolationmode none
attr recordingmode vector
attr title resources
0	5	10	1
0	6	11	0
0	12	11.532277459676	1
0	13	11.532277459676	2
0	14	12	1
0	17	13	0
0	23	13.123824331901	1
0	24	13.123824331901	2
0	28	13.442351474733	3
0	29	13.442351474733	4
0	30	14	3
0	33	15	2
0	39	15.168034000583	3
0	40	15.168034000583	4
0	41	16	3
0	47	16.255491475351	4
0	48	16.255491475351	5
0	52	16.748611212898	6
0	53	16.748611212898	7
0	54	17	6
0	57	18	5
0	63	18.340575826443	6
0	64	18.340575826443	7
0	68	18.804872850867	8
0	69	18.804872850867	9
0	70	19	8
0	73	20	7
0	79	20.116346580964	8
0	80	20.116346580964	9
0	81	21	8
0	87	21.837507913059	9
0	88	21.837507913059	10
0	89	22	9
0	92	23	8
0	98	23.590407782555	9
0	99	23.590407782555	10
0	100	24	9
0	106	24.167881149401	10
0	107	24.167881149401	11
0	111	24.455960020282	12
0	112	24.455960020282	13
0	113	25	12
0	116	26	11
0	122	26.50199007642	12
0	123	26.50199007642	13
0	124	27	12
0	130	27.565275078525	13
0	131	27.565275078525	14
0	132	28	13
0	138	28.981916441972	14
0	139	28.981916441972	15
0	140	29	14
0	143	30	13
0	149	30.022563450188	14
0	150	30.022563450188	15
0	151	31	14
0	157	31.217553902414	15
0	158	31.217553902414	16
0	159	32	15
0	162	33	14
0	168	33.204887804925	15
0	169	33.204887804925	16
0	170	34	15
0	176	34.046811970988	16
0	177	34.046811970988	17
0	178	35	16
0	184	35.864089316173	17
0	185	35.864089316173	18
0	186	36	17
0	192	36.946474922379	18
0	193	36.946474922379	19
0	194	37	18
0	200	37.657829390647	19
0	201	37.657829390647	20
0	202	38	19
0	208	38.233994364196	20
0	209	38.233994364196	21
0	210	39	20
0	216	39.111898160727	21
0	217	39.111898160727	22
0	218	40	21
0	224	40.406163475239	22
0	225	40.406163475239	23
0	226	41	22
0	232	41.451523600438	23
0	233	41.451523600438	24
0	234	42	23
0	240	42.249611840778	24
0	241	42.249611840778	25
0	245	42.955510414936	26
0	246	42.955510414936	27
0	247	43	26
0	253	43.522198685798	27
0	254	43.522198685798	28
0	255	44	27
0	261	44.718006085383	28
0	262	44.718006085383	29
0	263	45	28
0	269	45.051447302598	29
0	270	45.051447302598	30
0	271	46	29
0	277	46.289268371929	30
0	278	46.289268371929	31
0	279	47	30
0	285	47.886918093738	31
0	286	47.886918093738	32
0	287	48	31
0	293	48.58985177667	32
0	294	48.58985177667	33
0	295	49	32
0	301	49.70566522878	33
0	302	49.70566522878	34
0	303	50	33
0	309	50.876288787732	34
0	310	50.876288787732	35
0	311	51	34
0	317	51.42145760328	35
0	318	51.42145760328	36
0	319	52	35
0	325	52.124899661092	36
0	326	52.124899661092	37
0	327	53	36
0	333	53.564635936914	37
0	334	53.564635936914	38
0	338	53.62389966247	39
0	339	53.62389966247	40
0	340	54	39
0	346	54.155286512072	40
0	347	54.155286512072	41
0	348	55	40
0	354	55.455354233639	41
0	355	55.455354233639	42
0	356	56	41
0	362	56.415008105082	42
0	363	56.415008105082	43
0	364	57	42
0	370	57.440736130889	43
0	371	57.440736130889	44
0	372	58	43
0	378	58.567090451828	44
0	379	58.567090451828	45
0	380	59	44
0	386	59.1616826868	45
0	387	59.1616826868	46
0	388	60	45
0	394	60.302239772141	46
0	395	60.302239772141	47
0	396	61	46
0	402	61.656738231918	47
0	403	61.656738231918	48
0	404	62	47
0	410	62.712948753434	48
0	411	62.712948753434	49
0	412	63	48
0	418	63.02649706159	49
0	419	63.02649706159	50
0	423	63.12155535667	51
0	424	63.12155535667	52
0	428	63.629001784801	53
0	429	63.629001784801	54
0	433	63.632860136267	55
0	434	63.632860136267	56
0	435	64	55
0	438	65	54
0	444	65.833419501458	55
0	445	65.833419501458	56
0	446	66	55
0	452	66.343374398232	56
0	453	66.343374398232	57
0	454	67	56
0	460	67.533112162574	57
0	461	67.533112162574	58
0	465	67.958943262063	59
0	466	67.958943262063	60
0	467	68	59
0	473	68.515023890973	60
0	474	68.515023890973	61
0	475	69	60
0	481	69.556566288486	61
0	482	69.556566288486	62
0	486	69.726015385948	63
0	487	69.726015385948	64
0	488	70	63
0	494	70.158266319718	64
0	495	70.158266319718	65
0	496	71	64
0	502	71.075896386142	65
0	503	71.075896386142	66
0	504	72	65
0	510	72.671319214273	66
0	511	72.671319214273	67
0	512	73	66
0	518	73.518958904316	67
0	519	73.518958904316	68
0	520	74	67
0	526	74.048002380608	68
0	527	74.048002380608	69
0	528	75	68
0	534	75.503270317003	69
0	535	75.503270317003	70
0	536	76	69
0	542	76.733710214074	70
0	543	76.733710214074	71
0	544	77	70
0	547	78	69
0	553	78.381635785138	70
0	554	78.381635785138	71
0	555	79	70
0	561	79.215870749227	71
0	562	79.215870749227	72
0	566	79.756029593024	73
0	567	79.756029593024	74
0	571	79.952859527455	75
0	572	79.952859527455	76
0	573	80	75
0	576	81	74
0	579	82	73
0	585	82.133051923283	74
0	586	82.133051923283	75
0	587	83	74
0	590	84	73
0	596	84.157032546623	74
0	597	84.157032546623	75
0	598	85	74
0	604	85.167395384512	75
0	605	85.167395384512	76
0	606	86	75
0	612	86.611765047516	76
0	613	86.611765047516	77
0	614	87	76
0	617	88	75
0	623	88.296079912613	76
0	624	88.296079912613	77
0	625	89	76
0	631	89.303602321285	77
0	632	89.303602321285	78
0	633	90	77
0	639	90.080266731928	78
0	640	90.080266731928	79
0	644	90.935761372653	80
0	645	90.935761372653	81
0	646	91	80
0	649	92	79
0	655	92.472645437207	80
0	656	92.472645437207	81
0	657	93	80
0	663	93.54540979132	81
0	664	93.54540979132	82
0	665	94	81
0	671	94.571102216884	82
0	672	94.571102216884	83
0	673	95	82
0	679	95.50441016607	83
0	680	95.50441016607	84
0	681	96	83
0	687	96.235698323644	84
0	688	96.235698323644	85
0	689	97	84
0	695	97.771290017696	85
0	696	97.771290017696	86
0	697	98	85
0	703	98.655182638815	86
0	704	98.655182638815	87
0	705	99	86
0	711	99.982231703981	87
0	712	99.982231703981	88
0	713	100	87
0	716	101	86
0	722	101.500891660891	87
0	723	101.500891660891	88
0	724	102	87
0	730	102.70700435537	88
0	731	102.70700435537	89
0	732	103	88
0	738	103.747468490381	89
0	739	103.747468490381	90
0	740	104	89
0	746	104.380810169041	90
0	747	104.380810169041	91
0	748	105	90
0	754	105.321148233288	91
0	755	105.321148233288	92
0	759	105.444334076068	93
0	760	105.444334076068	94
0	761	106	93
0	767	106.211587494363	94
0	768	106.211587494363	95
0	769	107	94
0	775	107.060843356284	95
0	776	107.060843356284	96
0	777	108	95
0	783	108.308358761989	96
0	784	108.308358761989	97
0	788	108.973337440081	98
0	789	108.973337440081	99
0	790	109	98
0	796	109.724138037998	99
0	797	109.724138037998	100
0	801	109.98891196391	101
0	802	109.98891196391	102
0	803	110	101
0	809	110.766029628424	102
0	810	110.766029628424	103
0	811	111	102
0	817	111.930260240516	103
0	818	111.930260240516	104
0	819	112	103
0	822	113	102
0	828	113.451118128763	103
0	829	113.451118128763	104
0	830	114	103
0	836	114.423913435314	104
0	837	114.423913435314	105
0	841	114.823335384472	106
0	842	114.823335384472	107
0	843	115	106
0	849	115.140010018098	107
0	850	115.140010018098	108
0	851	116	107
0	857	116.076627755353	108
0	858	116.076627755353	109
0	859	117	108
0	865	117.472178919216	109
0	866	117.472178919216	110
0	867	118	109
0	873	118.256877556559	110
0	874	118.256877556559	111
0	875	119	110
0	878	120	109
0	884	120.135763907024	110
0	885	120.135763907024	111
0	886	121	110
0	892	121.161520320793	111
0	893	121.161520320793	112
0	894	122	111
0	900	122.153237449519	112
0	901	122.153237449519	113
0	905	122.818580045592	114
0	906	122.818580045592	115
0	907	123	114
0	913	123.832756938202	115
0	914	123.832756938202	116
0	915	124	115
0	921	124.771899687694	116
0	922	124.771899687694	117
0	923	125	116
0	929	125.993929867563	117
0	930	125.993929867563	118
0	931	126	117
0	934	127	116
0	940	127.105276368247	117
0	941	127.105276368247	118
0	945	127.733465905928	119
0	946	127.733465905928	120
0	947	128	119
0	953	128.918216257184	120
0	954	128.918216257184	121
0	955	129	120
0	961	129.835402056534	121
0	962	129.835402056534	122
0	963	130	121
0	966	131	120
0	969	132	119
0	975	132.115832453813	120
0	976	132.115832453813	121
0	977	133	120
0	980	134	119
0	986	134.246871233202	120
0	987	134.246871233202	121
0	988	135	120
0	994	135.649889546687	121
0	995	135.649889546687	122
0	996	136	121
0	999	137	120
0	1005	137.484973337373	121
0	1006	137.484973337373	122
0	1007	138	121
0	1013	138.879153997944	122
0	1014	138.879153997944	123
0	1015	139	122
0	1021	139.869657029357	123
0	1022	139.869657029357	124
0	1023	140	123
0	1026	141	122
0	1032	141.599768333192	123
0	1033	141.599768333192	124
0	1034	142	123
0	1037	143	122
0	1043	143.932934667506	123
0	1044	143.932934667506	124
0	1045	144	123
0	1048	145	122
0	1054	145.047690549042	123
0	1055	145.047690549042	124
0	1059	145.100946235918	125
0	1060	145.100946235918	126
0	1064	145.545583623899	127
0	1065	145.545583623899	128
0	1066	146	127
0	1072	146.572584659051	128
0	1073	146.572584659051	129
0	1074	147	128
0	1080	147.768186083176	129
0	1081	147.768186083176	130
0	1082	148	129
0	1088	148.888225988038	130
0	1089	148.888225988038	131
0	1090	149	130
0	1093	150	129
0	1099	150.495149225891	130
0	1100	150.495149225891	131
0	1101	151	130
0	1107	151.914418357556	131
0	1108	151.914418357556	132
0	1109	152	131
0	1115	152.869197579166	132
0	1116	152.869197579166	133
0	1117	153	132
0	1120	154	131
0	1123	155	130
0	1129	155.321923878832	131
0	1130	155.321923878832	132
0	1131	156	131
0	1134	157	130
0	1140	157.035263721305	131
0	1141	157.035263721305	132
0	1145	157.862615302925	133
0	1146	157.862615302925	134
0	1147	158	133
0	1153	158.244148394014	134
0	1154	158.244148394014	135
0	1155	159	134
0	1161	159.325523704484	135
0	1162	159.325523704484	136
0	1166	159.770641687177	137
0	1167	159.770641687177	138
0	1168	160	137
0	1174	160.335965030902	138
0	1175	160.335965030902	139
0	1179	160.605640080568	140
0	1180	160.605640080568	141
0	1181	161	140
0	1187	161.567509744047	141
0	1188	161.567509744047	142
0	1189	162	141
0	1195	162.213311595746	142
0	1196	162.213311595746	143
0	1200	162.772281066882	144
0	1201	162.772281066882	145
0	1202	163	144
0	1205	164	143
0	1211	164.489475249475	144
0	1212	164.489475249475	145
0	1216	164.70274377557	146
0	1217	164.70274377557	147
0	1218	165	146
0	1224	165.34858909841	147
0	1225	165.34858909841	148
0	1226	166	147
0	1232	166.263980250123	148
0	1233	166.263980250123	149
0	1234	167	148
0	1240	167.015877215254	149
0	1241	167.015877215254	150
0	1245	167.116792216424	151
0	1246	167.116792216424	152
0	1247	168	151
0	1253	168.334703591723	152
0	1254	168.334703591723	153
0	1258	168.783909773783	154
0	1259	168.783909773783	155
0	1260	169	154
0	1266	169.213369019004	155
0	1267	169.213369019004	156
0	1271	169.443650940225	157
0	1272	169.443650940225	158
0	1273	170	157
0	1279	170.134604670077	158
0	1280	170.134604670077	159
0	1284	170.595812309569	160
0	1285	170.595812309569	161
0	1286	171	160
0	1292	171.830630357315	161
0	1293	171.830630357315	162
0	1294	172	161
0	1297	173	160
0	1303	173.379743081714	161
0	1304	173.379743081714	162
0	1305	174	161
0	1311	174.856305349091	162
0	1312	174.856305349091	163
0	1313	175	162
0	1316	176	161
0	1322	176.108653005453	162
0	1323	176.108653005453	163
0	1324	177	162
0	1330	177.329419155494	163
0	1331	177.329419155494	164
0	1332	178	163
0	1338	178.659308376122	164
0	1339	178.659308376122	165
0	1343	178.965216936837	166
0	1344	178.965216936837	167
0	1345	179	166
0	1351	179.393753884965	167
0	1352	179.393753884965	168
0	1353	180	167
0	1356	181	166
0	1362	181.002636159279	167
0	1363	181.002636159279	168
0	1364	182	167
0	1370	182.17566544665	168
0	1371	182.17566544665	169
0	1372	183	168
0	1378	183.444586612385	169
0	1379	183.444586612385	170
0	1380	184	169
0	1386	184.19325060272	170
0	1387	184.19325060272	171
0	1391	184.845891430796	172
0	1392	184.845891430796	173
0	1393	185	172
0	1396	186	171
0	1402	186.173026914905	172
0	1403	186.173026914905	173
0	1407	186.260934912461	174
0	1408	186.260934912461	175
0	1409	187	174
0	1415	187.581616763925	175
0	1416	187.581616763925	176
0	1417	188	175
0	1420	189	174
0	1426	189.064171732697	175
0	1427	189.064171732697	176
0	1428	190	175
0	1434	190.866809034442	176
0	1435	190.866809034442	177
0	1436	191	176
0	1442	191.571994011293	177
0	1443	191.571994011293	178
0	1444	192	177
0	1450	192.670296055094	178
0	1451	192.670296055094	179
0	1452	193	178
0	1458	193.883378467712	179
0	1459	193.883378467712	180
0	1460	194	179
0	1466	194.99746091159	180
0	1467	194.99746091159	181
0	1468	195	180
0	1471	196	179
0	1477	196.403681975598	180
0	1478	196.403681975598	181
0	1479	197	180
0	1482	198	179
0	1488	198.004531104706	180
0	1489	198.004531104706	181
0	1490	199	180
0	1496	199.840693317147	181
0	1497	199.840693317147	182
0	1498	200	181
0	1501	201	180
0	1507	201.77137716407	181
0	1508	201.77137716407	182
0	1509	202	181
0	1512	203	180
0	1518	203.811006532016	181
0	1519	203.811006532016	182
0	1520	204	181
0	1523	205	180
0	1529	205.269431821167	181
0	1530	205.269431821167	182
0	1531	206	181
0	1537	206.941020830269	182
0	1538	206.941020830269	183
0	1539	207	182
0	1545	207.426096067476	183
0	1546	207.426096067476	184
0	1547	208	183
0	1553	208.718479386325	184
0	1554	208.718479386325	185
0	1555	209	184
0	1561	209.90493630242	185
0	1562	209.90493630242	186
0	1563	210	185
0	1569	210.682348573906	186
0	1570	210.682348573906	187
0	1574	210.703881722217	188
0	1575	210.703881722217	189
0	1576	211	188
0	1582	211.923979305972	189
0	1583	211.923979305972	190
0	1584	212	189
0	1587	213	188
0	1593	213.874993350775	189
0	1594	213.874993350775	190
0	1595	214	189
0	1598	215	188
0	1604	215.040755421734	189
0	1605	215.040755421734	190
0	1606	216	189
0	1612	216.044863499604	190
0	1613	216.044863499604	191
0	1617	216.487577629246	192
0	1618	216.487577629246	193
0	1619	217	192
0	1625	217.208907410245	193
0	1626	217.208907410245	194
0	1630	217.795982115576	195
0	1631	217.795982115576	196
0	1632	218	195
0	1638	218.309141947087	196
0	1639	218.309141947087	197
0	1640	219	196
0	1646	219.065027777368	197
0	1647	219.065027777368	198
0	1651	219.474284941451	199
0	1652	219.474284941451	200
0	1653	220	199
0	1659	220.861502772692	200
0	1660	220.861502772692	201
0	1661	221	200
0	1667	221.857614858606	201
0	1668	221.857614858606	202
0	1669	222	201
0	1675	222.767444392578	202
0	1676	222.767444392578	203
0	1677	223	202
0	1680	224	201
0	1686	224.535879627911	202
0	1687	224.535879627911	203
0	1691	224.638734071437	204
0	1692	224.638734071437	205
0	1693	225	204
0	1696	226	203
0	1702	226.13723500411	204
0	1703	226.13723500411	205
0	1707	226.443444763322	206
0	1708	226.443444763322	207
0	1709	227	206
0	1715	227.666152064419	207
0	1716	227.666152064419	208
0	1717	228	207
0	1723	228.266796187622	208
0	1724	228.266796187622	209
0	1725	229	208
0	1731	229.111326137748	209
0	1732	229.111326137748	210
0	1733	230	209
0	1739	230.249592224883	210
0	1740	230.249592224883	211
0	1744	230.753208388752	212
0	1745	230.753208388752	213
0	1746	231	212
0	1749	232	211
0	1752	233	210
0	1758	233.258533546422	211
0	1759	233.258533546422	212
0	1760	234	211
0	1766	234.106332670307	212
0	1767	234.106332670307	213
0	1771	234.683830918997	214
0	1772	234.683830918997	215
0	1773	235	214
0	1779	235.816088037697	215
0	1780	235.816088037697	216
0	1781	236	215
0	1784	237	214
0	1790	237.138812977778	215
0	1791	237.138812977778	216
0	1795	237.93869624982	217
0	1796	237.93869624982	218
0	1797	238	217
0	1803	238.493755807688	218
0	1804	238.493755807688	219
0	1805	239	218
0	1811	239.076773466505	219
0	1812	239.076773466505	220
0	1816	239.416902647234	221
0	1817	239.416902647234	222
0	1818	240	221
0	1824	240.622027683332	222
0	1825	240.622027683332	223
0	1826	241	222
0	1832	241.938343245082	223
0	1833	241.938343245082	224
0	1834	242	223
0	1837	243	222
0	1843	243.319087216375	223
0	1844	243.319087216375	224
0	1848	243.407459182275	225
0	1849	243.407459182275	226
0	1850	244	225
0	1853	245	224
0	1859	245.546659857626	225
0	1860	245.546659857626	226
0	1861	246	225
0	1864	247	224
0	1870	247.321559103356	225
0	1871	247.321559103356	226
0	1872	248	225
0	1878	248.647530745537	226
0	1879	248.647530745537	227
0	1880	249	226
0	1886	249.000366422794	227
0	1887	249.000366422794	228
0	1891	249.489023649772	229
0	1892	249.489023649772	230
0	1893	250	229
0	1899	250.603917210416	230
0	1900	250.603917210416	231
0	1901	251	230
0	1904	252	229
0	1910	252.880212972325	230
0	1911	252.880212972325	231
0	1912	253	230
0	1915	254	229
0	1921	254.672028084909	230
0	1922	254.672028084909	231
0	1923	255	230
0	1929	255.423116739239	231
0	1930	255.423116739239	232
0	1931	256	231
0	1937	256.499412510387	232
0	1938	256.499412510387	233
0	1939	257	232
0	1945	257.46685103453	233
0	1946	257.46685103453	234
0	1947	258	233
0	1950	259	232
0	1956	259.157783903971	233
0	1957	259.157783903971	234
0	1961	259.694289129401	235
0	1962	259.694289129401	236
0	1963	260	235
0	1969	260.801396274065	236
0	1970	260.801396274065	237
0	1971	261	236
0	1977	261.517377375122	237
0	1978	261.517377375122	238
0	1979	262	237
0	1982	263	236
0	1988	263.272872451184	237
0	1989	263.272872451184	238
0	1990	264	237
0	1996	264.721215722494	238
0	1997	264.721215722494	239
0	1998	265	238
0	2004	265.821039463616	239
0	2005	265.821039463616	240
0	2009	265.95810920665	241
0	2010	265.95810920665	242
0	2011	266	241
0	2017	266.540295658979	242
0	2018	266.540295658979	243
0	2019	267	242
0	2022	268	241
0	2028	268.551977734913	242
0	2029	268.551977734913	243
0	2033	268.91131541995	244
0	2034	268.91131541995	245
0	2035	269	244
0	2041	269.934466704651	245
0	2042	269.934466704651	246
0	2043	270	245
0	2046	271	244
0	2052	271.141796009376	245
0	2053	271.141796009376	246
0	2057	271.397860254691	247
0	2058	271.397860254691	248
0	2059	272	247
0	2065	272.3638959063	248
0	2066	272.3638959063	249
0	2070	272.625874268594	250
0	2071	272.625874268594	251
0	2072	273	250
0	2078	273.506606539361	251
0	2079	273.506606539361	252
0	2080	274	251
0	2086	274.383229020906	252
0	2087	274.383229020906	253
0	2088	275	252
0	2094	275.70722011939	253
0	2095	275.70722011939	254
0	2096	276	253
0	2102	276.656497192072	254
0	2103	276.656497192072	255
0	2104	277	254
0	2110	277.143116341581	255
0	2111	277.143116341581	256
0	2115	277.171836195419	257
0	2116	277.171836195419	258
0	2117	278	257
0	2123	278.159384111362	258
0	2124	278.159384111362	259
0	2125	279	258
0	2128	280	257
0	2134	280.719612991651	258
0	2135	280.719612991651	259
0	2139	280.812134194874	260
0	2140	280.812134194874	261
0	2141	281	260
0	2144	282	259
0	2150	282.331080773086	260
0	2151	282.331080773086	261
0	2152	283	260
0	2158	283.312227659213	261
0	2159	283.312227659213	262
0	2163	283.583885070749	263
0	2164	283.583885070749	264
0	2165	284	263
0	2171	284.501150590726	264
0	2172	284.501150590726	265
0	2176	284.567574084	266
0	2177	284.567574084	267
0	2178	285	266
0	2181	286	265
0	2187	286.747338711091	266
0	2188	286.747338711091	267
0	2189	287	266
0	2195	287.683271921197	267
0	2196	287.683271921197	268
0	2197	288	267
0	2203	288.399867147941	268
0	2204	288.399867147941	269
0	2208	288.443203514101	270
0	2209	288.443203514101	271
0	2210	289	270
0	2216	289.187807321217	271
0	2217	289.187807321217	272
0	2218	290	271
0	2221	291	270
0	2227	291.514185665806	271
0	2228	291.514185665806	272
0	2229	292	271
0	2235	292.999450356942	272
0	2236	292.999450356942	273
0	2237	293	272
0	2243	293.683046652533	273
0	2244	293.683046652533	274
0	2245	294	273
0	2248	295	272
0	2254	295.508549013794	273
0	2255	295.508549013794	274
0	2256	296	273
0	2262	296.213095614172	274
0	2263	296.213095614172	275
0	2264	297	274
0	2270	297.815345238592	275
0	2271	297.815345238592	276
0	2272	298	275
0	2278	298.659242129175	276
0	2279	298.659242129175	277
0	2280	299	276
0	2286	299.799427560691	277
0	2287	299.799427560691	278
0	2288	300	277
0	2294	300.367386722106	278
0	2295	300.367386722106	279
0	2299	300.748972526911	280
0	2300	300.748972526911	281
0	2301	301	280
0	2307	301.641668608957	281
0	2308	301.641668608957	282
0	2309	302	281
0	2315	302.928321968399	282
0	2316	302.928321968399	283
0	2317	303	282
0	2323	303.770282993422	283
0	2324	303.770282993422	284
0	2325	304	283
0	2328	305	282
0	2334	305.072893615988	283
0	2335	305.072893615988	284
0	2336	306	283
0	2342	306.603359776948	284
0	2343	306.603359776948	285
0	2344	307	284
0	2350	307.848240341583	285
0	2351	307.848240341583	286
0	2352	308	285
0	2358	308.860009207336	286
0	2359	308.860009207336	287
0	2360	309	286
0	2366	309.068712913222	287
0	2367	309.068712913222	288
0	2371	309.798884377219	289
0	2372	309.798884377219	290
0	2373	310	289
0	2376	311	288
0	2382	311.136726080622	289
0	2383	311.136726080622	290
0	2387	311.642580035921	291
0	2388	311.642580035921	292
0	2389	312	291
0	2395	312.934558181463	292
0	2396	312.934558181463	293
0	2397	313	292
0	2403	313.225723691974	293
0	2404	313.225723691974	294
0	2408	313.522509459938	295
0	2409	313.522509459938	296
0	2410	314	295
0	2413	315	294
0	2419	315.43732948978	295
0	2420	315.43732948978	296
0	2421	316	295
0	2427	316.989697356647	296
0	2428	316.989697356647	297
0	2429	317	296
0	2432	318	295
0	2438	318.014896164266	296
0	2439	318.014896164266	297
0	2440	319	296
0	2443	320	295
0	2449	320.567831197214	296
0	2450	320.567831197214	297
0	2451	321	296
0	2457	321.766287399144	297
0	2458	321.766287399144	298
0	2459	322	297
0	2465	322.61754746266	298
0	2466	322.61754746266	299
0	2467	323	298
0	2473	323.306490819081	299
0	2474	323.306490819081	300
0	2475	324	299
0	2481	324.557378239917	300
0	2482	324.557378239917	301
0	2483	325	300
0	2489	325.046974338792	301
0	2490	325.046974338792	302
0	2494	325.49435622868	303
0	2495	325.49435622868	304
0	2496	326	303
0	2499	327	302
0	2505	327.690801158233	303
0	2506	327.690801158233	304
0	2507	328	303
0	2513	328.506258174037	304
0	2514	328.506258174037	305
0	2515	329	304
0	2518	330	303
0	2524	330.125483330521	304
0	2525	330.125483330521	305
0	2526	331	304
0	2532	331.024747725645	305
0	2533	331.024747725645	306
0	2534	332	305
0	2540	332.614983492614	306
0	2541	332.614983492614	307
0	2542	333	306
0	2545	334	305
0	2551	334.074148097831	306
0	2552	334.074148097831	307
0	2556	334.526126963104	308
0	2557	334.526126963104	309
0	2558	335	308
0	2564	335.44838528892	309
0	2565	335.44838528892	310
0	2566	336	309
0	2572	336.77588584659	310
0	2573	336.77588584659	311
0	2574	337	310
0	2580	337.507006127365	311
0	2581	337.507006127365	312
0	2582	338	311
0	2585	339	310
0	2591	339.84430575535	311
0	2592	339.84430575535	312
0	2593	340	311
0	2596	341	310
0	2602	341.341513264825	311
0	2603	341.341513264825	312
0	2607	341.580928784991	313
0	2608	341.580928784991	314
0	2609	342	313
0	2615	342.831073213675	314
0	2616	342.831073213675	315
0	2617	343	314
0	2620	344	313
0	2626	344.180724087361	314
0	2627	344.180724087361	315
0	2631	344.922432330686	316
0	2632	344.922432330686	317
0	2633	345	316
0	2639	345.625687242486	317
0	2640	345.625687242486	318
0	2641	346	317
0	2647	346.584056293848	318
0	2648	346.584056293848	319
0	2649	347	318
0	2655	347.420827784193	319
0	2656	347.420827784193	320
0	2657	348	319
0	2663	348.440524014271	320
0	2664	348.440524014271	321
0	2665	349	320
0	2671	349.160663419408	321
0	2672	349.160663419408	322
0	2676	349.988800555031	323
0	2677	349.988800555031	324
0	2678	350	323
0	2684	350.267565057395	324
0	2685	350.267565057395	325
0	2686	351	324
0	2692	351.143374169548	325
0	2693	351.143374169548	326
0	2694	352	325
0	2700	352.792253284419	326
0	2701	352.792253284419	327
0	2702	353	326
0	2705	354	325
0	2711	354.31685021867	326
0	2712	354.31685021867	327
0	2713	355	326
0	2719	355.132315217132	327
0	2720	355.132315217132	328
0	2721	356	327
0	2727	356.291560143757	328
0	2728	356.291560143757	329
0	2732	356.858784187843	330
0	2733	356.858784187843	331
0	2734	357	330
0	2740	357.48343682267	331
0	2741	357.48343682267	332
0	2742	358	331
0	2748	358.431732720923	332
0	2749	358.431732720923	333
0	2753	358.993690235646	334
0	2754	358.993690235646	335
0	2755	359	334
0	2761	359.852585174572	335
0	2762	359.852585174572	336
0	2763	360	335
0	2769	360.579576289782	336
0	2770	360.579576289782	337
0	2771	361	336
0	2777	361.177647494715	337
0	2778	361.177647494715	338
0	2779	362	337
0	2785	362.777154585443	338
0	2786	362.777154585443	339
0	2787	363	338
0	2790	364	337
0	2796	364.7486767929	338
0	2797	364.7486767929	339
0	2798	365	338
0	2804	365.506024903885	339
0	2805	365.506024903885	340
0	2809	365.626466579676	341
0	2810	365.626466579676	342
0	2811	366	341
0	2817	366.990611513777	342
0	2818	366.990611513777	343
0	2819	367	342
0	2825	367.685066084292	343
0	2826	367.685066084292	344
0	2827	368	343
0	2830	369	342
0	2836	369.065146600418	343
0	2837	369.065146600418	344
0	2838	370	343
0	2844	370.665896903085	344
0	2845	370.665896903085	345
0	2846	371	344
0	2849	372	343
0	2855	372.359290467201	344
0	2856	372.359290467201	345
0	2860	372.796859782708	346
0	2861	372.796859782708	347
0	2862	373	346
0	2868	373.308604582324	347
0	2869	373.308604582324	348
0	2873	373.84408888083	349
0	2874	373.84408888083	350
0	2875	374	349
0	2881	374.718140542109	350
0	2882	374.718140542109	351
0	2883	375	350
0	2886	376	349
0	2892	376.234237935645	350
0	2893	376.234237935645	351
0	2897	376.991017075887	352
0	2898	376.991017075887	353
0	2899	377	352
0	2905	377.553330841521	353
0	2906	377.553330841521	354
0	2907	378	353
0	2913	378.981592866999	354
0	2914	378.981592866999	355
0	2915	379	354
0	2918	380	353
0	2924	380.017833378138	354
0	2925	380.017833378138	355
0	2926	381	354
0	2932	381.812292188074	355
0	2933	381.812292188074	356
0	2934	382	355
0	2940	382.349219631083	356
0	2941	382.349219631083	357
0	2942	383	356
0	2948	383.641170248366	357
0	2949	383.641170248366	358
0	2953	383.778180519809	359
0	2954	383.778180519809	360
0	2955	384	359
0	2961	384.700452010693	360
0	2962	384.700452010693	361
0	2963	385	360
0	2969	385.84819110863	361
0	2970	385.84819110863	362
0	2971	386	361
0	2977	386.571575333731	362
0	2978	386.571575333731	363
0	2982	386.73089824136	364
0	2983	386.73089824136	365
0	2984	387	364
0	2990	387.457707901263	365
0	2991	387.457707901263	366
0	2992	388	365
0	2998	388.464510638775	366
0	2999	388.464510638775	367
0	3000	389	366
0	3003	390	365
0	3009	390.448330028155	366
0	3010	390.448330028155	367
0	3011	391	366
0	3017	391.717041544143	367
0	3018	391.717041544143	368
0	3019	392	367
0	3025	392.626884151581	368
0	3026	392.626884151581	369
0	3027	393	368
0	3033	393.335109774607	369
0	3034	393.335109774607	370
0	3035	394	369
0	3041	394.251127409074	370
0	3042	394.251127409074	371
0	3043	395	370
0	3049	395.315833705672	371
0	3050	395.315833705672	372
0	3054	395.670842017451	373
0	3055	395.670842017451	374
0	3056	396	373
0	3062	396.065612585458	374
0	3063	396.065612585458	375
0	3064	397	374
0	3070	397.331102537845	375
0	3071	397.331102537845	376
0	3072	398	375
0	3078	398.019673952916	376
0	3079	398.019673952916	377
0	3083	398.967848454798	378
0	3084	398.967848454798	379
0	3085	399	378
0	3088	400	377
0	3094	400.048145541202	378
0	3095	400.048145541202	379
0	3096	401	378
0	3102	401.04183816868	379
0	3103	401.04183816868	380
0	3104	402	379
0	3110	402.188311994553	380
0	3111	402.188311994553	381
0	3112	403	380
0	3115	404	379
0	3121	404.954034453186	380
0	3122	404.954034453186	381
0	3123	405	380
0	3129	405.600373863932	381
0	3130	405.600373863932	382
0	3131	406	381
0	3137	406.762070942944	382
0	3138	406.762070942944	383
0	3139	407	382
0	3145	407.627548364301	383
0	3146	407.627548364301	384
0	3147	408	383
0	3153	408.374337696203	384
0	3154	408.374337696203	385
0	3158	408.84601833706	386
0	3159	408.84601833706	387
0	3160	409	386
0	3166	409.940641450895	387
0	3167	409.940641450895	388
0	3168	410	387
0	3174	410.647338659657	388
0	3175	410.647338659657	389
0	3179	410.720055589615	390
0	3180	410.720055589615	391
0	3181	411	390
0	3187	411.571506752297	391
0	3188	411.571506752297	392
0	3189	412	391
0	3195	412.096101084397	392
0	3196	412.096101084397	393
0	3200	412.398942075481	394
0	3201	412.398942075481	395
0	3202	413	394
0	3208	413.316529538417	395
0	3209	413.316529538417	396
0	3210	414	395
0	3216	414.309452521664	396
0	3217	414.309452521664	397
0	3218	415	396
0	3224	415.225656477443	397
0	3225	415.225656477443	398
0	3226	416	397
0	3232	416.771005115292	398
0	3233	416.771005115292	399
0	3234	417	398
0	3240	417.244552974465	399
0	3241	417.244552974465	400
0	3242	418	399
0	3248	418.441588204214	400
0	3249	418.441588204214	401
0	3250	419	400
0	3256	419.389668408695	401
0	3257	419.389668408695	402
0	3261	419.709052118943	403
0	3262	419.709052118943	404
0	3263	420	403
0	3266	421	402
0	3272	421.302079384844	403
0	3273	421.302079384844	404
0	3274	422	403
0	3280	422.625205022642	404
0	3281	422.625205022642	405
0	3282	423	404
0	3285	424	403
0	3291	424.392128385785	404
0	3292	424.392128385785	405
0	3293	425	404
0	3299	425.44373409942	405
0	3300	425.44373409942	406
0	3304	425.48979975853	407
0	3305	425.48979975853	408
0	3309	425.860874868826	409
0	3310	425.860874868826	410
0	3311	426	409
0	3317	426.640745952413	410
0	3318	426.640745952413	411
0	3319	427	410
0	3322	428	409
0	3328	428.542191863944	410
0	3329	428.542191863944	411
0	3330	429	410
0	3336	429.818072523903	411
0	3337	429.818072523903	412
0	3338	430	411
0	3341	431	410
0	3344	432	409
0	3350	432.310962453834	410
0	3351	432.310962453834	411
0	3352	433	410
0	3358	433.764086649325	411
0	3359	433.764086649325	412
0	3360	434	411