version 3
run k_MM1_lbqf-1-20221127-16:03:34-25264
attr configname k_MM1_lbqf
attr datetime 20221127-16:03:34
attr datetimef 20221127-160334
attr experiment k_MM1_lbqf
attr inifile omnetpp.ini
attr iterationvars "$time=1.0, $num=1, $0=45732, $1=35463, $2=67563"
attr iterationvarsd time=1.0/num=1/45732/35463/67563
attr iterationvarsf time=1.0,num=1,45732,35463,67563-
attr measurement "$time=1.0, $num=1, $0=45732, $1=35463, $2=67563"
attr network lbqfkMM1
attr processid 25264
attr repetition 1
attr replication #1
attr resultdir results
attr runnumber 1
attr seedset 1
itervar num 1
itervar time 1.0
config description "MM1 module k-times lbqf"
config network lbqfkMM1
config **.interArrivalTime "truncnormal(uniform(0.5s, 1.5s), uniform(0.25s, 0.75s))"
config **.serviceTime 1.0s
config **.c 1
config **.capacity 10000
config record-eventlog false
config **.scalar-recording true
config **.vector-recording true
config repeat 4
config seed-1-mt 45732
config seed-2-mt 35463
config seed-3-mt 67563
config output-vector-file k_MM1_lbqf-1-1.0-results/1.vec
config output-scalar-file k_MM1_lbqf-1-1.0-results/1.sca

vector 0 lbqfkMM1.mm1[0] queueLength:vector ETV
attr interpolationmode none
attr recordingmode vector
attr title "queue length"
vector 1 lbqfkMM1.mm1[0] util:vector ETV
attr interpolationmode none
attr recordingmode vector
attr title resources
0	5	10	1
0	6	11	0
0	16	12.006322486585	1
0	20	12.772927377032	2
0	21	12.772927377032	3
0	22	13.006322486585	2
0	28	13.290690594173	3
0	29	13.290690594173	4
0	33	13.779432022602	5
0	34	13.779432022602	6
0	35	14.006322486585	5
0	38	15.006322486585	4
0	44	15.184215440173	5
0	45	15.184215440173	6
0	49	15.492480081901	7
0	50	15.492480081901	8
0	51	16.006322486585	7
0	57	16.32078411404	8
0	58	16.32078411404	9
0	59	17.006322486585	8
0	65	17.508929051044	9
0	66	17.508929051044	10
0	70	17.871191734381	11
0	71	17.871191734381	12
0	72	18.006322486585	11
0	78	18.596415737477	12
0	79	18.596415737477	13
0	80	19.006322486585	12
0	83	20.006322486585	11
0	89	20.416932562225	12
0	90	20.416932562225	13
0	94	20.778224875822	14
0	95	20.778224875822	15
0	96	21.006322486585	14
0	99	22.006322486585	13
0	105	22.845305892255	14
0	106	22.845305892255	15
0	107	23.006322486585	14
0	113	23.403267751912	15
0	114	23.403267751912	16
0	118	23.798374888521	17
0	119	23.798374888521	18
0	120	24.006322486585	17
0	126	24.12664084495	18
0	127	24.12664084495	19
0	128	25.006322486585	18
0	134	25.766635462181	19
0	135	25.766635462181	20
0	136	26.006322486585	19
0	139	27.006322486585	18
0	145	27.174097601245	19
0	146	27.174097601245	20
0	150	27.322520444156	21
0	151	27.322520444156	22
0	155	27.524362741675	23
0	156	27.524362741675	24
0	157	28.006322486585	23
0	163	28.724090109923	24
0	164	28.724090109923	25
0	165	29.006322486585	24
0	171	29.650010388723	25
0	172	29.650010388723	26
0	176	29.946580727444	27
0	177	29.946580727444	28
0	178	30.006322486585	27
0	181	31.006322486585	26
0	187	31.559295785493	27
0	188	31.559295785493	28
0	189	32.006322486585	27
0	195	32.185563317792	28
0	196	32.185563317792	29
0	197	33.006322486585	28
0	203	33.086088760647	29
0	204	33.086088760647	30
0	208	33.630047626391	31
0	209	33.630047626391	32
0	210	34.006322486585	31
0	216	34.457237963477	32
0	217	34.457237963477	33
0	218	35.006322486585	32
0	224	35.83349231927	33
0	225	35.83349231927	34
0	226	36.006322486585	33
0	232	36.99303570193	34
0	233	36.99303570193	35
0	234	37.006322486585	34
0	237	38.006322486585	33
0	243	38.103426311145	34
0	244	38.103426311145	35
0	248	38.800953781548	36
0	249	38.800953781548	37
0	250	39.006322486585	36
0	253	40.006322486585	35
0	259	40.103312526683	36
0	260	40.103312526683	37
0	261	41.006322486585	36
0	267	41.368441527	37
0	268	41.368441527	38
0	269	42.006322486585	37
0	272	43.006322486585	36
0	278	43.07437109913	37
0	279	43.07437109913	38
0	280	44.006322486585	37
0	286	44.20973606117	38
0	287	44.20973606117	39
0	291	44.607935940136	40
0	292	44.607935940136	41
0	293	45.006322486585	40
0	299	45.676297426197	41
0	300	45.676297426197	42
0	301	46.006322486585	41
0	304	47.006322486585	40
0	310	47.569062469387	41
0	311	47.569062469387	42
0	312	48.006322486585	41
0	318	48.45386663741	42
0	319	48.45386663741	43
0	320	49.006322486585	42
0	326	49.737658318901	43
0	327	49.737658318901	44
0	328	50.006322486585	43
0	334	50.523545214592	44
0	335	50.523545214592	45
0	336	51.006322486585	44
0	339	52.006322486585	43
0	342	53.006322486585	42
0	348	53.23401772624	43
0	349	53.23401772624	44
0	350	54.006322486585	43
0	353	55.006322486585	42
0	359	55.019836118831	43
0	360	55.019836118831	44
0	361	56.006322486585	43
0	364	57.006322486585	42
0	370	57.081286578149	43
0	371	57.081286578149	44
0	372	58.006322486585	43
0	378	58.556143203679	44
0	379	58.556143203679	45
0	380	59.006322486585	44
0	386	59.490519046551	45
0	387	59.490519046551	46
0	388	60.006322486585	45
0	394	60.630603857967	46
0	395	60.630603857967	47
0	396	61.006322486585	46
0	402	61.63857785089	47
0	403	61.63857785089	48
0	404	62.006322486585	47
0	407	63.006322486585	46
0	413	63.12415536919	47
0	414	63.12415536919	48
0	418	63.951343057998	49
0	419	63.951343057998	50
0	420	64.006322486585	49
0	426	64.494741147264	50
0	427	64.494741147264	51
0	428	65.006322486585	50
0	434	65.445332179649	51
0	435	65.445332179649	52
0	436	66.006322486585	51
0	439	67.006322486585	50
0	442	68.006322486585	49
0	448	68.272871546782	50
0	449	68.272871546782	51
0	453	68.933210556268	52
0	454	68.933210556268	53
0	455	69.006322486585	52
0	461	69.844672260955	53
0	462	69.844672260955	54
0	463	70.006322486585	53
0	469	70.568064033423	54
0	470	70.568064033423	55
0	471	71.006322486585	54
0	477	71.561055385498	55
0	478	71.561055385498	56
0	479	72.006322486585	55
0	485	72.13176040029	56
0	486	72.13176040029	57
0	490	72.58533359532	58
0	491	72.58533359532	59
0	492	73.006322486585	58
0	498	73.187729700195	59
0	499	73.187729700195	60
0	500	74.006322486585	59
0	506	74.681205848394	60
0	507	74.681205848394	61
0	508	75.006322486585	60
0	511	76.006322486585	59
0	517	76.043821848813	60
0	518	76.043821848813	61
0	522	76.467762976825	62
0	523	76.467762976825	63
0	524	77.006322486585	62
0	530	77.540049409393	63
0	531	77.540049409393	64
0	535	77.767214727839	65
0	536	77.767214727839	66
0	540	77.959605824068	67
0	541	77.959605824068	68
0	542	78.006322486585	67
0	548	78.390153426951	68
0	549	78.390153426951	69
0	550	79.006322486585	68
0	556	79.283810527468	69
0	557	79.283810527468	70
0	561	79.997115592148	71
0	562	79.997115592148	72
0	563	80.006322486585	71
0	569	80.609033320946	72
0	570	80.609033320946	73
0	571	81.006322486585	72
0	574	82.006322486585	71
0	580	82.194190418068	72
0	581	82.194190418068	73
0	582	83.006322486585	72
0	588	83.316811685507	73
0	589	83.316811685507	74
0	593	83.809407463892	75
0	594	83.809407463892	76
0	595	84.006322486585	75
0	601	84.638952853989	76
0	602	84.638952853989	77
0	603	85.006322486585	76
0	606	86.006322486585	75
0	612	86.084959193799	76
0	613	86.084959193799	77
0	614	87.006322486585	76
0	617	88.006322486585	75
0	623	88.263407429323	76
0	624	88.263407429323	77
0	625	89.006322486585	76
0	631	89.471865714774	77
0	632	89.471865714774	78
0	633	90.006322486585	77
0	639	90.952308485172	78
0	640	90.952308485172	79
0	641	91.006322486585	78
0	644	92.006322486585	77
0	650	92.305169855531	78
0	651	92.305169855531	79
0	652	93.006322486585	78
0	658	93.036273701188	79
0	659	93.036273701188	80
0	660	94.006322486585	79
0	666	94.093409358827	80
0	667	94.093409358827	81
0	671	94.753200017563	82
0	672	94.753200017563	83
0	673	95.006322486585	82
0	676	96.006322486585	81
0	682	96.485632052788	82
0	683	96.485632052788	83
0	684	97.006322486585	82
0	690	97.50245918729	83
0	691	97.50245918729	84
0	695	97.723954889099	85
0	696	97.723954889099	86
0	697	98.006322486585	85
0	703	98.499341524298	86
0	704	98.499341524298	87
0	705	99.006322486585	86
0	711	99.818067641116	87
0	712	99.818067641116	88
0	713	100.006322486585	87
0	719	100.789072232879	88
0	720	100.789072232879	89
0	721	101.006322486585	88
0	727	101.630294221192	89
0	728	101.630294221192	90
0	729	102.006322486585	89
0	732	103.006322486585	88
0	738	103.126438200628	89
0	739	103.126438200628	90
0	740	104.006322486585	89
0	746	104.616441554916	90
0	747	104.616441554916	91
0	748	105.006322486585	90
0	754	105.843103116269	91
0	755	105.843103116269	92
0	756	106.006322486585	91
0	762	106.321650616983	92
0	763	106.321650616983	93
0	764	107.006322486585	92
0	770	107.432292093027	93
0	771	107.432292093027	94
0	775	107.900754095921	95
0	776	107.900754095921	96
0	777	108.006322486585	95
0	780	109.006322486585	94
0	783	110.006322486585	93
0	789	110.389223776748	94
0	790	110.389223776748	95
0	791	111.006322486585	94
0	794	112.006322486585	93
0	800	112.227061385131	94
0	801	112.227061385131	95
0	802	113.006322486585	94
0	808	113.172884382694	95
0	809	113.172884382694	96
0	810	114.006322486585	95
0	816	114.607775123992	96
0	817	114.607775123992	97
0	818	115.006322486585	96
0	821	116.006322486585	95
0	827	116.046807012134	96
0	828	116.046807012134	97
0	829	117.006322486585	96
0	835	117.128838811325	97
0	836	117.128838811325	98
0	837	118.006322486585	97
0	843	118.49111641986	98
0	844	118.49111641986	99
0	845	119.006322486585	98
0	851	119.062990550961	99
0	852	119.062990550961	100
0	853	120.006322486585	99
0	859	120.016891633364	100
0	860	120.016891633364	101
0	864	120.77405615236	102
0	865	120.77405615236	103
0	866	121.006322486585	102
0	872	121.527731599883	103
0	873	121.527731599883	104
0	874	122.006322486585	103
0	880	122.559916553113	104
0	881	122.559916553113	105
0	882	123.006322486585	104
0	888	123.775969045068	105
0	889	123.775969045068	106
0	890	124.006322486585	105
0	893	125.006322486585	104
0	899	125.664795768649	105
0	900	125.664795768649	106
0	901	126.006322486585	105
0	904	127.006322486585	104
0	910	127.751154752387	105
0	911	127.751154752387	106
0	912	128.006322486585	105
0	918	128.42061081973	106
0	919	128.42061081973	107
0	923	128.79651825899	108
0	924	128.79651825899	109
0	925	129.006322486585	108
0	931	129.928134979147	109
0	932	129.928134979147	110
0	933	130.006322486585	109
0	936	131.006322486585	108
0	942	131.096090150189	109
0	943	131.096090150189	110
0	944	132.006322486585	109
0	950	132.192699784411	110
0	951	132.192699784411	111
0	952	133.006322486585	110
0	958	133.554912253661	111
0	959	133.554912253661	112
0	960	134.006322486585	111
0	966	134.116863878471	112
0	967	134.116863878471	113
0	971	134.28456073074	114
0	972	134.28456073074	115
0	973	135.006322486585	114
0	979	135.487380495875	115
0	980	135.487380495875	116
0	981	136.006322486585	115
0	987	136.073222448016	116
0	988	136.073222448016	117
0	989	137.006322486585	116
0	995	137.502102178654	117
0	996	137.502102178654	118
0	997	138.006322486585	117
0	1003	138.960391351339	118
0	1004	138.960391351339	119
0	1005	139.006322486585	118
0	1008	140.006322486585	117
0	1014	140.651411282471	118
0	1015	140.651411282471	119
0	1016	141.006322486585	118
0	1022	141.577478912218	119
0	1023	141.577478912218	120
0	1024	142.006322486585	119
0	1030	142.597901882674	120
0	1031	142.597901882674	121
0	1032	143.006322486585	120
0	1035	144.006322486585	119
0	1041	144.573873452775	120
0	1042	144.573873452775	121
0	1043	145.006322486585	120
0	1046	146.006322486585	119
0	1052	146.04243783765	120
0	1053	146.04243783765	121
0	1054	147.006322486585	120
0	1057	148.006322486585	119
0	1063	148.639943584154	120
0	1064	148.639943584154	121
0	1068	148.904958936118	122
0	1069	148.904958936118	123
0	1070	149.006322486585	122
0	1076	149.881745349012	123
0	1077	149.881745349012	124
0	1078	150.006322486585	123
0	1084	150.532746866896	124
0	1085	150.532746866896	125
0	1089	150.943014303332	126
0	1090	150.943014303332	127
0	1091	151.006322486585	126
0	1097	151.080611594257	127
0	1098	151.080611594257	128
0	1099	152.006322486585	127
0	1105	152.199448578819	128
0	1106	152.199448578819	129
0	1107	153.006322486585	128
0	1113	153.170166874345	129
0	1114	153.170166874345	130
0	1115	154.006322486585	129
0	1121	154.970298495059	130
0	1122	154.970298495059	131
0	1123	155.006322486585	130
0	1129	155.434788809002	131
0	1130	155.434788809002	132
0	1131	156.006322486585	131
0	1137	156.145550316113	132
0	1138	156.145550316113	133
0	1139	157.006322486585	132
0	1145	157.906370814453	133
0	1146	157.906370814453	134
0	1147	158.006322486585	133
0	1150	159.006322486585	132
0	1156	159.59498278948	133
0	1157	159.59498278948	134
0	1158	160.006322486585	133
0	1164	160.519180814341	134
0	1165	160.519180814341	135
0	1166	161.006322486585	134
0	1169	162.006322486585	133
0	1175	162.09745060962	134
0	1176	162.09745060962	135
0	1180	162.669484758371	136
0	1181	162.669484758371	137
0	1182	163.006322486585	136
0	1188	163.067242713575	137
0	1189	163.067242713575	138
0	1190	164.006322486585	137
0	1196	164.658439433955	138
0	1197	164.658439433955	139
0	1198	165.006322486585	138
0	1204	165.812519331821	139
0	1205	165.812519331821	140
0	1206	166.006322486585	139
0	1212	166.953763708318	140
0	1213	166.953763708318	141
0	1214	167.006322486585	140
0	1220	167.821625568693	141
0	1221	167.821625568693	142
0	1222	168.006322486585	141
0	1228	168.150437429323	142
0	1229	168.150437429323	143
0	1230	169.006322486585	142
0	1236	169.353190490716	143
0	1237	169.353190490716	144
0	1241	169.476212056377	145
0	1242	169.476212056377	146
0	1243	170.006322486585	145
0	1249	170.958733370384	146
0	1250	170.958733370384	147
0	1251	171.006322486585	146
0	1257	171.263956566079	147
0	1258	171.263956566079	148
0	1259	172.006322486585	147
0	1265	172.935362048083	148
0	1266	172.935362048083	149
0	1267	173.006322486585	148
0	1273	173.467297730033	149
0	1274	173.467297730033	150
0	1275	174.006322486585	149
0	1281	174.976957723602	150
0	1282	174.976957723602	151
0	1283	175.006322486585	150
0	1289	175.923781092226	151
0	1290	175.923781092226	152
0	1291	176.006322486585	151
0	1297	176.735908924454	152
0	1298	176.735908924454	153
0	1299	177.006322486585	152
0	1305	177.776604610082	153
0	1306	177.776604610082	154
0	1307	178.006322486585	153
0	1310	179.006322486585	152
0	1316	179.30948188575	153
0	1317	179.30948188575	154
0	1318	180.006322486585	153
0	1324	180.745115003549	154
0	1325	180.745115003549	155
0	1326	181.006322486585	154
0	1329	182.006322486585	153
0	1335	182.214634463137	154
0	1336	182.214634463137	155
0	1340	182.968788887997	156
0	1341	182.968788887997	157
0	1342	183.006322486585	156
0	1348	183.210487233911	157
0	1349	183.210487233911	158
0	1350	184.006322486585	157
0	1356	184.247966914336	158
0	1357	184.247966914336	159
0	1361	184.930034245339	160
0	1362	184.930034245339	161
0	1363	185.006322486585	160
0	1369	185.916841361397	161
0	1370	185.916841361397	162
0	1371	186.006322486585	161
0	1374	187.006322486585	160
0	1380	187.450028681847	161
0	1381	187.450028681847	162
0	1382	188.006322486585	161
0	1388	188.65674921555	162
0	1389	188.65674921555	163
0	1390	189.006322486585	162
0	1396	189.537044737149	163
0	1397	189.537044737149	164
0	1398	190.006322486585	163
0	1404	190.985377366985	164
0	1405	190.985377366985	165
0	1406	191.006322486585	164
0	1409	192.006322486585	163
0	1415	192.095554806683	164
0	1416	192.095554806683	165
0	1420	192.611723534031	166
0	1421	192.611723534031	167
0	1425	192.936358141464	168
0	1426	192.936358141464	169
0	1427	193.006322486585	168
0	1433	193.434051152446	169
0	1434	193.434051152446	170
0	1438	193.975236274013	171
0	1439	193.975236274013	172
0	1440	194.006322486585	171
0	1446	194.817817567704	172
0	1447	194.817817567704	173
0	1448	195.006322486585	172
0	1451	196.006322486585	171
0	1457	196.595742615305	172
0	1458	196.595742615305	173
0	1459	197.006322486585	172
0	1465	197.583012439499	173
0	1466	197.583012439499	174
0	1467	198.006322486585	173
0	1473	198.268463360381	174
0	1474	198.268463360381	175
0	1478	198.967892203233	176
0	1479	198.967892203233	177
0	1480	199.006322486585	176
0	1483	200.006322486585	175
0	1489	200.402476430736	176
0	1490	200.402476430736	177
0	1494	200.87477445469	178
0	1495	200.87477445469	179
0	1496	201.006322486585	178
0	1502	201.242465723251	179
0	1503	201.242465723251	180
0	1504	202.006322486585	179
0	1510	202.606867168314	180
0	1511	202.606867168314	181
0	1512	203.006322486585	180
0	1518	203.461970656202	181
0	1519	203.461970656202	182
0	1520	204.006322486585	181
0	1526	204.897851518838	182
0	1527	204.897851518838	183
0	1528	205.006322486585	182
0	1534	205.474708771503	183
0	1535	205.474708771503	184
0	1536	206.006322486585	183
0	1542	206.965302703705	184
0	1543	206.965302703705	185
0	1544	207.006322486585	184
0	1550	207.447678373469	185
0	1551	207.447678373469	186
0	1552	208.006322486585	185
0	1558	208.409847355189	186
0	1559	208.409847355189	187
0	1560	209.006322486585	186
0	1566	209.33819428167	187
0	1567	209.33819428167	188
0	1568	210.006322486585	187
0	1574	210.356082570242	188
0	1575	210.356082570242	189
0	1576	211.006322486585	188
0	1579	212.006322486585	187
0	1585	212.239154287556	188
0	1586	212.239154287556	189
0	1587	213.006322486585	188
0	1593	213.212244265665	189
0	1594	213.212244265665	190
0	1595	214.006322486585	189
0	1601	214.426872607722	190
0	1602	214.426872607722	191
0	1603	215.006322486585	190
0	1609	215.390789755492	191
0	1610	215.390789755492	192
0	1611	216.006322486585	191
0	1617	216.632278060498	192
0	1618	216.632278060498	193
0	1619	217.006322486585	192
0	1625	217.162079250522	193
0	1626	217.162079250522	194
0	1627	218.006322486585	193
0	1633	218.174073948155	194
0	1634	218.174073948155	195
0	1638	218.93316617241	196
0	1639	218.93316617241	197
0	1640	219.006322486585	196
0	1643	220.006322486585	195
0	1649	220.056814292269	196
0	1650	220.056814292269	197
0	1654	220.665727427028	198
0	1655	220.665727427028	199
0	1659	220.912574044958	200
0	1660	220.912574044958	201
0	1661	221.006322486585	200
0	1664	222.006322486585	199
0	1670	222.025998266926	200
0	1671	222.025998266926	201
0	1675	222.559205083504	202
0	1676	222.559205083504	203
0	1680	222.588474103817	204
0	1681	222.588474103817	205
0	1682	223.006322486585	204
0	1688	223.300592118664	205
0	1689	223.300592118664	206
0	1693	223.989936208399	207
0	1694	223.989936208399	208
0	1695	224.006322486585	207
0	1698	225.006322486585	206
0	1704	225.96547218604	207
0	1705	225.96547218604	208
0	1706	226.006322486585	207
0	1712	226.620604467878	208
0	1713	226.620604467878	209
0	1714	227.006322486585	208
0	1717	228.006322486585	207
0	1723	228.122352507242	208
0	1724	228.122352507242	209
0	1725	229.006322486585	208
0	1728	230.006322486585	207
0	1734	230.410991985192	208
0	1735	230.410991985192	209
0	1736	231.006322486585	208
0	1742	231.915348580552	209
0	1743	231.915348580552	210
0	1744	232.006322486585	209
0	1750	232.220181712851	210
0	1751	232.220181712851	211
0	1752	233.006322486585	210
0	1758	233.272191923346	211
0	1759	233.272191923346	212
0	1763	233.932504866029	213
0	1764	233.932504866029	214
0	1765	234.006322486585	213
0	1771	234.10134869808	214
0	1772	234.10134869808	215
0	1773	235.006322486585	214
0	1779	235.817661150233	215
0	1780	235.817661150233	216
0	1781	236.006322486585	215
0	1787	236.663815957112	216
0	1788	236.663815957112	217
0	1789	237.006322486585	216
0	1792	238.006322486585	215
0	1798	238.952994523558	216
0	1799	238.952994523558	217
0	1800	239.006322486585	216
0	1803	240.006322486585	215
0	1809	240.071898987373	216
0	1810	240.071898987373	217
0	1814	240.802158964081	218
0	1815	240.802158964081	219
0	1816	241.006322486585	218
0	1822	241.201229237721	219
0	1823	241.201229237721	220
0	1824	242.006322486585	219
0	1830	242.716876310672	220
0	1831	242.716876310672	221
0	1832	243.006322486585	220
0	1838	243.047246411536	221
0	1839	243.047246411536	222
0	1840	244.006322486585	221
0	1846	244.274047740242	222
0	1847	244.274047740242	223
0	1848	245.006322486585	222
0	1854	245.936784552651	223
0	1855	245.936784552651	224
0	1856	246.006322486585	223
0	1859	247.006322486585	222
0	1865	247.03125792095	223
0	1866	247.03125792095	224
0	1867	248.006322486585	223
0	1873	248.704329765972	224
0	1874	248.704329765972	225
0	1875	249.006322486585	224
0	1881	249.681675588808	225
0	1882	249.681675588808	226
0	1883	250.006322486585	225
0	1886	251.006322486585	224
0	1892	251.062979014998	225
0	1893	251.062979014998	226
0	1897	251.671048519112	227
0	1898	251.671048519112	228
0	1899	252.006322486585	227
0	1905	252.063966026113	228
0	1906	252.063966026113	229
0	1907	253.006322486585	228
0	1913	253.930938867868	229
0	1914	253.930938867868	230
0	1915	254.006322486585	229
0	1921	254.906179883411	230
0	1922	254.906179883411	231
0	1923	255.006322486585	230
0	1929	255.573041915746	231
0	1930	255.573041915746	232
0	1931	256.006322486585	231
0	1937	256.34036788532	232
0	1938	256.34036788532	233
0	1939	257.006322486585	232
0	1945	257.573575221593	233
0	1946	257.573575221593	234
0	1947	258.006322486585	233
0	1950	259.006322486585	232
0	1956	259.273362531867	233
0	1957	259.273362531867	234
0	1958	260.006322486585	233
0	1964	260.670617232272	234
0	1965	260.670617232272	235
0	1966	261.006322486585	234
0	1972	261.13443320068	235
0	1973	261.13443320068	236
0	1974	262.006322486585	235
0	1980	262.839592191912	236
0	1981	262.839592191912	237
0	1982	263.006322486585	236
0	1988	263.225253374108	237
0	1989	263.225253374108	238
0	1990	264.006322486585	237
0	1996	264.164784912954	238
0	1997	264.164784912954	239
0	1998	265.006322486585	238
0	2004	265.56947663055	239
0	2005	265.56947663055	240
0	2006	266.006322486585	239
0	2012	266.687762594846	240
0	2013	266.687762594846	241
0	2014	267.006322486585	240
0	2017	268.006322486585	239
0	2023	268.067355829846	240
0	2024	268.067355829846	241
0	2028	268.776285664149	242
0	2029	268.776285664149	243
0	2030	269.006322486585	242
0	2036	269.598171060835	243
0	2037	269.598171060835	244
0	2038	270.006322486585	243
0	2044	270.829302514435	244
0	2045	270.829302514435	245
0	2046	271.006322486585	244
0	2052	271.666431663175	245
0	2053	271.666431663175	246
0	2054	272.006322486585	245
0	2057	273.006322486585	244
0	2060	274.006322486585	243
0	2066	274.622139826948	244
0	2067	274.622139826948	245
0	2068	275.006322486585	244
0	2071	276.006322486585	243
0	2077	276.295331616066	244
0	2078	276.295331616066	245
0	2079	277.006322486585	244
0	2085	277.848058360212	245
0	2086	277.848058360212	246
0	2087	278.006322486585	245
0	2093	278.908652042247	246
0	2094	278.908652042247	247
0	2095	279.006322486585	246
0	2101	279.618121584829	247
0	2102	279.618121584829	248
0	2103	280.006322486585	247
0	2109	280.285451168798	248
0	2110	280.285451168798	249
0	2111	281.006322486585	248
0	2114	282.006322486585	247
0	2120	282.082542830814	248
0	2121	282.082542830814	249
0	2122	283.006322486585	248
0	2128	283.816137679801	249
0	2129	283.816137679801	250
0	2130	284.006322486585	249
0	2136	284.806733352769	250
0	2137	284.806733352769	251
0	2138	285.006322486585	250
0	2144	285.825455117351	251
0	2145	285.825455117351	252
0	2146	286.006322486585	251
0	2152	286.43203907001	252
0	2153	286.43203907001	253
0	2157	286.930559212371	254
0	2158	286.930559212371	255
0	2159	287.006322486585	254
0	2165	287.506319305906	255
0	2166	287.506319305906	256
0	2167	288.006322486585	255
0	2173	288.190262664225	256
0	2174	288.190262664225	257
0	2175	289.006322486585	256
0	2181	289.805265388438	257
0	2182	289.805265388438	258
0	2183	290.006322486585	257
0	2186	291.006322486585	256
0	2192	291.061189552383	257
0	2193	291.061189552383	258
0	2194	292.006322486585	257
0	2200	292.572898186406	258
0	2201	292.572898186406	259
0	2202	293.006322486585	258
0	2205	294.006322486585	257
0	2211	294.116077675338	258
0	2212	294.116077675338	259
0	2213	295.006322486585	258
0	2219	295.015973488317	259
0	2220	295.015973488317	260
0	2221	296.006322486585	259
0	2227	296.634434339993	260
0	2228	296.634434339993	261
0	2229	297.006322486585	260
0	2235	297.724405819426	261
0	2236	297.724405819426	262
0	2237	298.006322486585	261
0	2243	298.998315199245	262
0	2244	298.998315199245	263
0	2245	299.006322486585	262
0	2248	300.006322486585	261
0	2254	300.383085961793	262
0	2255	300.383085961793	263
0	2256	301.006322486585	262
0	2262	301.576258730939	263
0	2263	301.576258730939	264
0	2264	302.006322486585	263
0	2267	303.006322486585	262
0	2273	303.318616431914	263
0	2274	303.318616431914	264
0	2275	304.006322486585	263
0	2281	304.516021252766	264
0	2282	304.516021252766	265
0	2286	304.739813492296	266
0	2287	304.739813492296	267
0	2288	305.006322486585	266
0	2294	305.285814065386	267
0	2295	305.285814065386	268
0	2296	306.006322486585	267
0	2302	306.468939123636	268
0	2303	306.468939123636	269
0	2304	307.006322486585	268
0	2310	307.445608315067	269
0	2311	307.445608315067	270
0	2312	308.006322486585	269
0	2318	308.624930369785	270
0	2319	308.624930369785	271
0	2320	309.006322486585	270
0	2326	309.984013632254	271
0	2327	309.984013632254	272
0	2328	310.006322486585	271
0	2334	310.999744211775	272
0	2335	310.999744211775	273
0	2336	311.006322486585	272
0	2342	311.87570335584	273
0	2343	311.87570335584	274
0	2344	312.006322486585	273
0	2347	313.006322486585	272
0	2353	313.583984120022	273
0	2354	313.583984120022	274
0	2355	314.006322486585	273
0	2361	314.868588260535	274
0	2362	314.868588260535	275
0	2363	315.006322486585	274
0	2366	316.006322486585	273
0	2372	316.340952032911	274
0	2373	316.340952032911	275
0	2377	316.833357332394	276
0	2378	316.833357332394	277
0	2379	317.006322486585	276
0	2385	317.318251927961	277
0	2386	317.318251927961	278
0	2387	318.006322486585	277
0	2393	318.252464420803	278
0	2394	318.252464420803	279
0	2398	318.293416607336	280
0	2399	318.293416607336	281
0	2400	319.006322486585	280
0	2406	319.713220209081	281
0	2407	319.713220209081	282
0	2408	320.006322486585	281
0	2414	320.120407289821	282
0	2415	320.120407289821	283
0	2419	320.633057299736	284
0	2420	320.633057299736	285
0	2421	321.006322486585	284
0	2427	321.447546698909	285
0	2428	321.447546698909	286
0	2429	322.006322486585	285
0	2435	322.393956432322	286
0	2436	322.393956432322	287
0	2437	323.006322486585	286
0	2440	324.006322486585	285
0	2446	324.280032039647	286
0	2447	324.280032039647	287
0	2448	325.006322486585	286
0	2454	325.153176329645	287
0	2455	325.153176329645	288
0	2456	326.006322486585	287
0	2462	326.315770218082	288
0	2463	326.315770218082	289
0	2467	326.329200504417	290
0	2468	326.329200504417	291
0	2472	326.602637249965	292
0	2473	326.602637249965	293
0	2477	326.918350846018	294
0	2478	326.918350846018	295
0	2479	327.006322486585	294
0	2482	328.006322486585	293
0	2488	328.527473366357	294
0	2489	328.527473366357	295
0	2490	329.006322486585	294
0	2493	330.006322486585	293
0	2499	330.685945447259	294
0	2500	330.685945447259	295
0	2501	331.006322486585	294
0	2504	332.006322486585	293
0	2510	332.313649207644	294
0	2511	332.313649207644	295
0	2515	332.827161984524	296
0	2516	332.827161984524	297
0	2517	333.006322486585	296
0	2520	334.006322486585	295
0	2526	334.543046221711	296
0	2527	334.543046221711	297
0	2528	335.006322486585	296
0	2534	335.861499776147	297
0	2535	335.861499776147	298
0	2536	336.006322486585	297
0	2542	336.798017631457	298
0	2543	336.798017631457	299
0	2544	337.006322486585	298
0	2550	337.769170626668	299
0	2551	337.769170626668	300
0	2552	338.006322486585	299
0	2558	338.8366055542	300
0	2559	338.8366055542	301
0	2563	338.99603401862	302
0	2564	338.99603401862	303
0	2565	339.006322486585	302
0	2568	340.006322486585	301
0	2574	340.076191541808	302
0	2575	340.076191541808	303
0	2579	340.922149949507	304
0	2580	340.922149949507	305
0	2581	341.006322486585	304
0	2587	341.603649974807	305
0	2588	341.603649974807	306
0	2589	342.006322486585	305
0	2595	342.723102478007	306
0	2596	342.723102478007	307
0	2597	343.006322486585	306
0	2600	344.006322486585	305
0	2606	344.06607316783	306
0	2607	344.06607316783	307
0	2608	345.006322486585	306
0	2614	345.951123477749	307
0	2615	345.951123477749	308
0	2616	346.006322486585	307
0	2619	347.006322486585	306
0	2625	347.180989923439	307
0	2626	347.180989923439	308
0	2627	348.006322486585	307
0	2633	348.287092276546	308
0	2634	348.287092276546	309
0	2638	348.641538036103	310
0	2639	348.641538036103	311
0	2643	348.833949989562	312
0	2644	348.833949989562	313
0	2645	349.006322486585	312
0	2648	350.006322486585	311
0	2654	350.051617698062	312
0	2655	350.051617698062	313
0	2656	351.006322486585	312
0	2662	351.245534553256	313
0	2663	351.245534553256	314
0	2664	352.006322486585	313
0	2670	352.740732209346	314
0	2671	352.740732209346	315
0	2672	353.006322486585	314
0	2678	353.950409158315	315
0	2679	353.950409158315	316
0	2680	354.006322486585	315
0	2683	355.006322486585	314
0	2689	355.10171594936	315
0	2690	355.10171594936	316
0	2691	356.006322486585	315
0	2694	357.006322486585	314
0	2697	358.006322486585	313
0	2703	358.139820306864	314
0	2704	358.139820306864	315
0	2708	358.951395626447	316
0	2709	358.951395626447	317
0	2710	359.006322486585	316
0	2713	360.006322486585	315
0	2719	360.484909469178	316
0	2720	360.484909469178	317
0	2724	360.922336319721	318
0	2725	360.922336319721	319
0	2726	361.006322486585	318
0	2729	362.006322486585	317
0	2735	362.160871333164	318
0	2736	362.160871333164	319
0	2737	363.006322486585	318
0	2743	363.386333875971	319
0	2744	363.386333875971	320
0	2748	363.959951724001	321
0	2749	363.959951724001	322
0	2750	364.006322486585	321
0	2753	365.006322486585	320
0	2759	365.416650032093	321
0	2760	365.416650032093	322
0	2764	365.705051725086	323
0	2765	365.705051725086	324
0	2766	366.006322486585	323
0	2772	366.659892883124	324
0	2773	366.659892883124	325
0	2774	367.006322486585	324
0	2780	367.686815284723	325
0	2781	367.686815284723	326
0	2782	368.006322486585	325
0	2785	369.006322486585	324
0	2791	369.220166456596	325
0	2792	369.220166456596	326
0	2793	370.006322486585	325
0	2799	370.144589893655	326
0	2800	370.144589893655	327
0	2801	371.006322486585	326
0	2807	371.675749601639	327
0	2808	371.675749601639	328
0	2809	372.006322486585	327
0	2815	372.208799211505	328
0	2816	372.208799211505	329
0	2820	372.708598296061	330
0	2821	372.708598296061	331
0	2822	373.006322486585	330
0	2828	373.336397640118	331
0	2829	373.336397640118	332
0	2830	374.006322486585	331
0	2836	374.406910026344	332
0	2837	374.406910026344	333
0	2841	374.869027641838	334
0	2842	374.869027641838	335
0	2843	375.006322486585	334