version 3
run k_MM1_lbqf-2-20221127-16:03:34-25264
attr configname k_MM1_lbqf
attr datetime 20221127-16:03:34
attr datetimef 20221127-160334
attr experiment k_MM1_lbqf
attr inifile omnetpp.ini
attr iterationvars "$time=1.0, $num=1, $0=47853, $1=24674, $2=96433"
attr iterationvarsd time=1.0/num=1/47853/24674/96433
attr iterationvarsf time=1.0,num=1,47853,24674,96433-
attr measurement "$time=1.0, $num=1, $0=47853, $1=24674, $2=96433"
attr network lbqfkMM1
attr processid 25264
attr repetition 2
attr replication #2
attr resultdir results
attr runnumber 2
attr seedset 2
itervar num 1
itervar time 1.0
config description "MM1 module k-times lbqf"
config network lbqfkMM1
config **.interArrivalTime "truncnormal(uniform(0.5s, 1.5s), uniform(0.25s, 0.75s))"
config **.serviceTime 1.0s
config **.c 1
config **.capacity 10000
config record-eventlog false
config **.scalar-recording true
config **.vector-recording true
config repeat 4
config seed-1-mt 47853
config seed-2-mt 24674
config seed-3-mt 96433
config output-vector-file k_MM1_lbqf-1-1.0-results/2.vec
config output-scalar-file k_MM1_lbqf-1-1.0-results/2.sca

vector 0 lbqfkMM1.mm1[0] queueLength:vector ETV
attr interpolationmode none
attr recordingmode vector
attr title "queue length"
vector 1 lbqfkMM1.mm1[0] util:vector ETV
attr interpolationmode none
attr recordingmode vector
attr title resources
0	5	10	1
0	6	11	0
0	12	11.007356147034	1
0	13	11.007356147034	2
0	17	11.286675818619	3
0	18	11.286675818619	4
0	19	12	3
0	25	12.414648100702	4
0	26	12.414648100702	5
0	27	13	4
0	33	13.726737247874	5
0	34	13.726737247874	6
0	35	14	5
0	41	14.265626157555	6
0	42	14.265626157555	7
0	43	15	6
0	49	15.056297621009	7
0	50	15.056297621009	8
0	54	15.178410279195	9
0	55	15.178410279195	10
0	59	15.805751539065	11
0	60	15.805751539065	12
0	61	16	11
0	67	16.649625473114	12
0	68	16.649625473114	13
0	69	17	12
0	72	18	11
0	78	18.131593367052	12
0	79	18.131593367052	13
0	80	19	12
0	86	19.102324272124	13
0	87	19.102324272124	14
0	88	20	13
0	94	20.088188366261	14
0	95	20.088188366261	15
0	99	20.101723802015	16
0	100	20.101723802015	17
0	104	20.846563353052	18
0	105	20.846563353052	19
0	106	21	18
0	112	21.813630514751	19
0	113	21.813630514751	20
0	114	22	19
0	120	22.495871254232	20
0	121	22.495871254232	21
0	122	23	20
0	128	23.813593941622	21
0	129	23.813593941622	22
0	130	24	21
0	136	24.38267186134	22
0	137	24.38267186134	23
0	138	25	22
0	141	26	21
0	147	26.394238586096	22
0	148	26.394238586096	23
0	149	27	22
0	155	27.358433267979	23
0	156	27.358433267979	24
0	157	28	23
0	163	28.944346112624	24
0	164	28.944346112624	25
0	165	29	24
0	168	30	23
0	174	30.061586831688	24
0	175	30.061586831688	25
0	176	31	24
0	182	31.274306906821	25
0	183	31.274306906821	26
0	187	31.487125296712	27
0	188	31.487125296712	28
0	189	32	27
0	195	32.808957868797	28
0	196	32.808957868797	29
0	197	33	28
0	200	34	27
0	206	34.110796373482	28
0	207	34.110796373482	29
0	208	35	28
0	214	35.099534555218	29
0	215	35.099534555218	30
0	219	35.19982262216	31
0	220	35.19982262216	32
0	221	36	31
0	224	37	30
0	230	37.832592652891	31
0	231	37.832592652891	32
0	232	38	31
0	235	39	30
0	241	39.036025526984	31
0	242	39.036025526984	32
0	246	39.118508448443	33
0	247	39.118508448443	34
0	251	39.244189032865	35
0	252	39.244189032865	36
0	253	40	35
0	259	40.297193626924	36
0	260	40.297193626924	37
0	264	40.348957072285	38
0	265	40.348957072285	39
0	266	41	38
0	272	41.740874267447	39
0	273	41.740874267447	40
0	274	42	39
0	280	42.198792688734	40
0	281	42.198792688734	41
0	282	43	40
0	288	43.841609935255	41
0	289	43.841609935255	42
0	290	44	41
0	293	45	40
0	299	45.045112294693	41
0	300	45.045112294693	42
0	304	45.734593470459	43
0	305	45.734593470459	44
0	306	46	43
0	312	46.915176304218	44
0	313	46.915176304218	45
0	314	47	44
0	320	47.487599769808	45
0	321	47.487599769808	46
0	322	48	45
0	328	48.82270093316	46
0	329	48.82270093316	47
0	330	49	46
0	336	49.280899764037	47
0	337	49.280899764037	48
0	338	50	47
0	344	50.602201993038	48
0	345	50.602201993038	49
0	346	51	48
0	352	51.286641641794	49
0	353	51.286641641794	50
0	354	52	49
0	360	52.876720235655	50
0	361	52.876720235655	51
0	362	53	50
0	368	53.866113170032	51
0	369	53.866113170032	52
0	370	54	51
0	373	55	50
0	379	55.191116014246	51
0	380	55.191116014246	52
0	381	56	51
0	387	56.906694420816	52
0	388	56.906694420816	53
0	389	57	52
0	395	57.899490858875	53
0	396	57.899490858875	54
0	397	58	53
0	403	58.646195012824	54
0	404	58.646195012824	55
0	405	59	54
0	411	59.687267510584	55
0	412	59.687267510584	56
0	413	60	55
0	419	60.690004584233	56
0	420	60.690004584233	57
0	421	61	56
0	427	61.218426918103	57
0	428	61.218426918103	58
0	429	62	57
0	432	63	56
0	438	63.376504414918	57
0	439	63.376504414918	58
0	440	64	57
0	443	65	56
0	449	65.096852366702	57
0	450	65.096852366702	58
0	451	66	57
0	457	66.150879304988	58
0	458	66.150879304988	59
0	459	67	58
0	465	67.502709731915	59
0	466	67.502709731915	60
0	467	68	59
0	473	68.333688170993	60
0	474	68.333688170993	61
0	475	69	60
0	481	69.262247021028	61
0	482	69.262247021028	62
0	486	69.558407665415	63
0	487	69.558407665415	64
0	488	70	63
0	494	70.2944374654	64
0	495	70.2944374654	65
0	496	71	64
0	502	71.098673518236	65
0	503	71.098673518236	66
0	507	71.677400569855	67
0	508	71.677400569855	68
0	509	72	67
0	515	72.394940384012	68
0	516	72.394940384012	69
0	517	73	68
0	523	73.046849778761	69
0	524	73.046849778761	70
0	525	74	69
0	531	74.245339341833	70
0	532	74.245339341833	71
0	533	75	70
0	536	76	69
0	542	76.299470435427	70
0	543	76.299470435427	71
0	547	76.662164630919	72
0	548	76.662164630919	73
0	549	77	72
0	555	77.843127844464	73
0	556	77.843127844464	74
0	557	78	73
0	560	79	72
0	566	79.126601109376	73
0	567	79.126601109376	74
0	568	80	73
0	574	80.08159977557	74
0	575	80.08159977557	75
0	576	81	74
0	582	81.418556308478	75
0	583	81.418556308478	76
0	584	82	75
0	590	82.959446518585	76
0	591	82.959446518585	77
0	592	83	76
0	598	83.606049065145	77
0	599	83.606049065145	78
0	600	84	77
0	606	84.966402897923	78
0	607	84.966402897923	79
0	608	85	78
0	614	85.723621979655	79
0	615	85.723621979655	80
0	616	86	79
0	622	86.694375029416	80
0	623	86.694375029416	81
0	624	87	80
0	627	88	79
0	633	88.172649864197	80
0	634	88.172649864197	81
0	635	89	80
0	641	89.958788802939	81
0	642	89.958788802939	82
0	643	90	81
0	649	90.748267530203	82
0	650	90.748267530203	83
0	651	91	82
0	657	91.335635976236	83
0	658	91.335635976236	84
0	659	92	83
0	665	92.013978734657	84
0	666	92.013978734657	85
0	670	92.679512717825	86
0	671	92.679512717825	87
0	672	93	86
0	678	93.367714928836	87
0	679	93.367714928836	88
0	680	94	87
0	686	94.812849558974	88
0	687	94.812849558974	89
0	688	95	88
0	691	96	87
0	697	96.84503564291	88
0	698	96.84503564291	89
0	699	97	88
0	705	97.920342838413	89
0	706	97.920342838413	90
0	707	98	89
0	713	98.453358102911	90
0	714	98.453358102911	91
0	715	99	90
0	718	100	89
0	724	100.481212035297	90
0	725	100.481212035297	91
0	726	101	90
0	732	101.014148573078	91
0	733	101.014148573078	92
0	737	101.999776477926	93
0	738	101.999776477926	94
0	739	102	93
0	745	102.337410216984	94
0	746	102.337410216984	95
0	747	103	94
0	750	104	93
0	756	104.036107213865	94
0	757	104.036107213865	95
0	761	104.54194195589	96
0	762	104.54194195589	97
0	763	105	96
0	766	106	95
0	772	106.059072660016	96
0	773	106.059072660016	97
0	774	107	96
0	780	107.937371302119	97
0	781	107.937371302119	98
0	782	108	97
0	785	109	96
0	791	109.449424726923	97
0	792	109.449424726923	98
0	793	110	97
0	799	110.112924822472	98
0	800	110.112924822472	99
0	804	110.502554874446	100
0	805	110.502554874446	101
0	806	111	100
0	809	112	99
0	815	112.021753417155	100
0	816	112.021753417155	101
0	820	112.894026489885	102
0	821	112.894026489885	103
0	822	113	102
0	828	113.645133036976	103
0	829	113.645133036976	104
0	830	114	103
0	836	114.661657606729	104
0	837	114.661657606729	105
0	838	115	104
0	844	115.459276032377	105
0	845	115.459276032377	106
0	846	116	105
0	852	116.63011162303	106
0	853	116.63011162303	107
0	854	117	106
0	857	118	105
0	863	118.204187372899	106
0	864	118.204187372899	107
0	865	119	106
0	871	119.549681430643	107
0	872	119.549681430643	108
0	873	120	107
0	879	120.813841485555	108
0	880	120.813841485555	109
0	881	121	108
0	887	121.479255659337	109
0	888	121.479255659337	110
0	889	122	109
0	895	122.434007557359	110
0	896	122.434007557359	111
0	897	123	110
0	900	124	109
0	906	124.28442562008	110
0	907	124.28442562008	111
0	908	125	110
0	911	126	109
0	917	126.731238795817	110
0	918	126.731238795817	111
0	919	127	110
0	925	127.299356013567	111
0	926	127.299356013567	112
0	927	128	111
0	933	128.579522858047	112
0	934	128.579522858047	113
0	935	129	112
0	938	130	111
0	944	130.479866755836	112
0	945	130.479866755836	113
0	946	131	112
0	952	131.843209715683	113
0	953	131.843209715683	114
0	954	132	113
0	957	133	112
0	963	133.00683534704	113
0	964	133.00683534704	114
0	965	134	113
0	971	134.276466081251	114
0	972	134.276466081251	115
0	976	134.660606206622	116
0	977	134.660606206622	117
0	978	135	116
0	981	136	115
0	987	136.213251526433	116
0	988	136.213251526433	117
0	992	136.48757215487	118
0	993	136.48757215487	119
0	994	137	118
0	1000	137.087277330221	119
0	1001	137.087277330221	120
0	1005	137.802951209106	121
0	1006	137.802951209106	122
0	1007	138	121
0	1013	138.80357464115	122
0	1014	138.80357464115	123
0	1015	139	122
0	1021	139.493706754612	123
0	1022	139.493706754612	124
0	1026	139.859669441656	125
0	1027	139.859669441656	126
0	1028	140	125
0	1031	141	124
0	1037	141.156754038465	125
0	1038	141.156754038465	126
0	1039	142	125
0	1045	142.243764641542	126
0	1046	142.243764641542	127
0	1050	142.369937971595	128
0	1051	142.369937971595	129
0	1052	143	128
0	1055	144	127
0	1061	144.30743374464	128
0	1062	144.30743374464	129
0	1063	145	128
0	1069	145.892167543279	129
0	1070	145.892167543279	130
0	1071	146	129
0	1077	146.421645703844	130
0	1078	146.421645703844	131
0	1079	147	130
0	1085	147.322344217362	131
0	1086	147.322344217362	132
0	1087	148	131
0	1093	148.05408490511	132
0	1094	148.05408490511	133
0	1095	149	132
0	1101	149.879074771441	133
0	1102	149.879074771441	134
0	1103	150	133
0	1109	150.385356491331	134
0	1110	150.385356491331	135
0	1111	151	134
0	1117	151.63624861957	135
0	1118	151.63624861957	136
0	1119	152	135
0	1122	153	134
0	1128	153.817684949822	135
0	1129	153.817684949822	136
0	1130	154	135
0	1136	154.88090337018	136
0	1137	154.88090337018	137
0	1138	155	136
0	1144	155.582914812515	137
0	1145	155.582914812515	138
0	1146	156	137
0	1149	157	136
0	1155	157.038868545721	137
0	1156	157.038868545721	138
0	1157	158	137
0	1163	158.259715803795	138
0	1164	158.259715803795	139
0	1165	159	138
0	1171	159.150253103133	139
0	1172	159.150253103133	140
0	1173	160	139
0	1179	160.302964476645	140
0	1180	160.302964476645	141
0	1181	161	140
0	1187	161.445285545961	141
0	1188	161.445285545961	142
0	1192	161.826406521014	143
0	1193	161.826406521014	144
0	1194	162	143
0	1200	162.134395216989	144
0	1201	162.134395216989	145
0	1202	163	144
0	1208	163.872508276363	145
0	1209	163.872508276363	146
0	1210	164	145
0	1213	165	144
0	1219	165.234331362126	145
0	1220	165.234331362126	146
0	1221	166	145
0	1224	167	144
0	1230	167.405098918962	145
0	1231	167.405098918962	146
0	1232	168	145
0	1238	168.407887239298	146
0	1239	168.407887239298	147
0	1240	169	146
0	1246	169.25841572001	147
0	1247	169.25841572001	148
0	1248	170	147
0	1254	170.561230032794	148
0	1255	170.561230032794	149
0	1256	171	148
0	1259	172	147
0	1265	172.218159485062	148
0	1266	172.218159485062	149
0	1267	173	148
0	1273	173.081978028175	149
0	1274	173.081978028175	150
0	1278	173.124664927912	151
0	1279	173.124664927912	152
0	1280	174	151
0	1286	174.439250798525	152
0	1287	174.439250798525	153
0	1291	174.633144500983	154
0	1292	174.633144500983	155
0	1293	175	154
0	1299	175.005652211036	155
0	1300	175.005652211036	156
0	1304	175.844499650428	157
0	1305	175.844499650428	158
0	1306	176	157
0	1312	176.44439293507	158
0	1313	176.44439293507	159
0	1314	177	158
0	1320	177.551099638214	159
0	1321	177.551099638214	160
0	1322	178	159
0	1328	178.787732128265	160
0	1329	178.787732128265	161
0	1330	179	160
0	1336	179.347931382251	161
0	1337	179.347931382251	162
0	1338	180	161
0	1344	180.289022114864	162
0	1345	180.289022114864	163
0	1346	181	162
0	1352	181.225396964744	163
0	1353	181.225396964744	164
0	1357	181.257903893157	165
0	1358	181.257903893157	166
0	1359	182	165
0	1365	182.305701842339	166
0	1366	182.305701842339	167
0	1367	183	166
0	1370	184	165
0	1376	184.348920196263	166
0	1377	184.348920196263	167
0	1378	185	166
0	1384	185.207573054033	167
0	1385	185.207573054033	168
0	1386	186	167
0	1389	187	166
0	1395	187.106396508874	167
0	1396	187.106396508874	168
0	1397	188	167
0	1403	188.910576698966	168
0	1404	188.910576698966	169
0	1405	189	168
0	1408	190	167
0	1414	190.334097848086	168
0	1415	190.334097848086	169
0	1416	191	168
0	1419	192	167
0	1425	192.32653058498	168
0	1426	192.32653058498	169
0	1430	192.761017576277	170
0	1431	192.761017576277	171
0	1432	193	170
0	1438	193.429712313921	171
0	1439	193.429712313921	172
0	1440	194	171
0	1446	194.486597125219	172
0	1447	194.486597125219	173
0	1448	195	172
0	1454	195.826982511826	173
0	1455	195.826982511826	174
0	1456	196	173
0	1459	197	172
0	1465	197.730102860736	173
0	1466	197.730102860736	174
0	1467	198	173
0	1470	199	172
0	1476	199.321653203108	173
0	1477	199.321653203108	174
0	1481	199.599966252209	175
0	1482	199.599966252209	176
0	1483	200	175
0	1489	200.695006645529	176
0	1490	200.695006645529	177
0	1491	201	176
0	1497	201.427215590266	177
0	1498	201.427215590266	178
0	1499	202	177
0	1505	202.355978848065	178
0	1506	202.355978848065	179
0	1510	202.8177227437	180
0	1511	202.8177227437	181
0	1512	203	180
0	1515	204	179
0	1521	204.015007572934	180
0	1522	204.015007572934	181
0	1526	204.778725952697	182
0	1527	204.778725952697	183
0	1528	205	182
0	1534	205.111138627465	183
0	1535	205.111138627465	184
0	1536	206	183
0	1542	206.06646718886	184
0	1543	206.06646718886	185
0	1544	207	184
0	1550	207.581456449338	185
0	1551	207.581456449338	186
0	1552	208	185
0	1558	208.647425743868	186
0	1559	208.647425743868	187
0	1563	208.890319516228	188
0	1564	208.890319516228	189
0	1565	209	188
0	1571	209.695659087077	189
0	1572	209.695659087077	190
0	1573	210	189
0	1579	210.289963917924	190
0	1580	210.289963917924	191
0	1584	210.889586593626	192
0	1585	210.889586593626	193
0	1586	211	192
0	1592	211.870597942846	193
0	1593	211.870597942846	194
0	1594	212	193
0	1597	213	192
0	1603	213.209513282334	193
0	1604	213.209513282334	194
0	1605	214	193
0	1611	214.388831726133	194
0	1612	214.388831726133	195
0	1613	215	194
0	1619	215.825182729076	195
0	1620	215.825182729076	196
0	1621	216	195
0	1627	216.730357338522	196
0	1628	216.730357338522	197
0	1629	217	196
0	1635	217.494452266473	197
0	1636	217.494452266473	198
0	1637	218	197
0	1640	219	196
0	1646	219.269153568773	197
0	1647	219.269153568773	198
0	1648	220	197
0	1651	221	196
0	1657	221.171330351064	197
0	1658	221.171330351064	198
0	1659	222	197
0	1665	222.538230153148	198
0	1666	222.538230153148	199
0	1667	223	198
0	1673	223.235841744547	199
0	1674	223.235841744547	200
0	1675	224	199
0	1681	224.249232620044	200
0	1682	224.249232620044	201
0	1683	225	200
0	1689	225.946768765549	201
0	1690	225.946768765549	202
0	1691	226	201
0	1694	227	200
0	1700	227.647001393932	201
0	1701	227.647001393932	202
0	1702	228	201
0	1708	228.10593427894	202
0	1709	228.10593427894	203
0	1710	229	202
0	1716	229.323796953854	203
0	1717	229.323796953854	204
0	1718	230	203
0	1724	230.682393423648	204
0	1725	230.682393423648	205
0	1726	231	204
0	1729	232	203
0	1735	232.773418964969	204
0	1736	232.773418964969	205
0	1737	233	204
0	1743	233.960636080193	205
0	1744	233.960636080193	206
0	1745	234	205
0	1751	234.619316827101	206
0	1752	234.619316827101	207
0	1753	235	206
0	1756	236	205
0	1762	236.068907749391	206
0	1763	236.068907749391	207
0	1764	237	206
0	1770	237.331265584495	207
0	1771	237.331265584495	208
0	1772	238	207
0	1778	238.066010784812	208
0	1779	238.066010784812	209
0	1780	239	208
0	1786	239.271156566811	209
0	1787	239.271156566811	210
0	1788	240	209
0	1794	240.077250696906	210
0	1795	240.077250696906	211
0	1796	241	210
0	1802	241.543667421469	211
0	1803	241.543667421469	212
0	1804	242	211
0	1810	242.879401030665	212
0	1811	242.879401030665	213
0	1812	243	212
0	1818	243.131119224076	213
0	1819	243.131119224076	214
0	1820	244	213
0	1826	244.233132063294	214
0	1827	244.233132063294	215
0	1828	245	214
0	1834	245.333732363688	215
0	1835	245.333732363688	216
0	1836	246	215
0	1842	246.729556017197	216
0	1843	246.729556017197	217
0	1844	247	216
0	1850	247.01471302359	217
0	1851	247.01471302359	218
0	1855	247.609446773058	219
0	1856	247.609446773058	220
0	1857	248	219
0	1863	248.895065930161	220
0	1864	248.895065930161	221
0	1865	249	220
0	1871	249.813753272341	221
0	1872	249.813753272341	222
0	1873	250	221
0	1876	251	220
0	1882	251.261190939242	221
0	1883	251.261190939242	222
0	1884	252	221
0	1890	252.434169013007	222
0	1891	252.434169013007	223
0	1892	253	222
0	1895	254	221
0	1898	255	220
0	1904	255.123350434877	221
0	1905	255.123350434877	222
0	1906	256	221
0	1912	256.819119339939	222
0	1913	256.819119339939	223
0	1914	257	222
0	1920	257.964173009132	223
0	1921	257.964173009132	224
0	1922	258	223
0	1925	259	222
0	1931	259.062064261839	223
0	1932	259.062064261839	224
0	1936	259.862257912098	225
0	1937	259.862257912098	226
0	1938	260	225
0	1941	261	224
0	1947	261.144824824666	225
0	1948	261.144824824666	226
0	1949	262	225
0	1952	263	224
0	1958	263.036430844167	225
0	1959	263.036430844167	226
0	1963	263.583490351996	227
0	1964	263.583490351996	228
0	1968	263.719128515274	229
0	1969	263.719128515274	230
0	1970	264	229
0	1976	264.450893785909	230
0	1977	264.450893785909	231
0	1978	265	230
0	1981	266	229
0	1987	266.013514205988	230
0	1988	266.013514205988	231
0	1992	266.979733370217	232
0	1993	266.979733370217	233
0	1994	267	232
0	2000	267.99579754901	233
0	2001	267.99579754901	234
0	2002	268	233
0	2008	268.506201309418	234
0	2009	268.506201309418	235
0	2010	269	234
0	2016	269.457827424556	235
0	2017	269.457827424556	236
0	2018	270	235
0	2021	271	234
0	2027	271.079731930245	235
0	2028	271.079731930245	236
0	2029	272	235
0	2035	272.250138295922	236
0	2036	272.250138295922	237
0	2037	273	236
0	2043	273.296009575029	237
0	2044	273.296009575029	238
0	2045	274	237
0	2051	274.44946899835	238
0	2052	274.44946899835	239
0	2053	275	238
0	2059	275.669676992457	239
0	2060	275.669676992457	240
0	2061	276	239
0	2067	276.903128529914	240
0	2068	276.903128529914	241
0	2069	277	240
0	2075	277.907871113594	241
0	2076	277.907871113594	242
0	2077	278	241
0	2083	278.589397560415	242
0	2084	278.589397560415	243
0	2085	279	242
0	2091	279.400423707124	243
0	2092	279.400423707124	244
0	2096	279.430081957082	245
0	2097	279.430081957082	246
0	2101	279.895247542118	247
0	2102	279.895247542118	248
0	2103	280	247
0	2109	280.596797195268	248
0	2110	280.596797195268	249
0	2111	281	248
0	2114	282	247
0	2120	282.755817894732	248
0	2121	282.755817894732	249
0	2122	283	248
0	2128	283.652272331387	249
0	2129	283.652272331387	250
0	2130	284	249
0	2136	284.66540137137	250
0	2137	284.66540137137	251
0	2138	285	250
0	2144	285.65778267307	251
0	2145	285.65778267307	252
0	2146	286	251
0	2152	286.40912307742	252
0	2153	286.40912307742	253
0	2154	287	252
0	2160	287.003859280099	253
0	2161	287.003859280099	254
0	2165	287.093639253972	255
0	2166	287.093639253972	256
0	2167	288	255
0	2170	289	254
0	2176	289.147395448068	255
0	2177	289.147395448068	256
0	2181	289.721770033582	257
0	2182	289.721770033582	258
0	2183	290	257
0	2189	290.701920980223	258
0	2190	290.701920980223	259
0	2191	291	258
0	2197	291.713407745707	259
0	2198	291.713407745707	260
0	2199	292	259
0	2205	292.036853427294	260
0	2206	292.036853427294	261
0	2210	292.823067036607	262
0	2211	292.823067036607	263
0	2212	293	262
0	2215	294	261
0	2221	294.051470706584	262
0	2222	294.051470706584	263
0	2226	294.634863207	264
0	2227	294.634863207	265
0	2228	295	264
0	2234	295.249056448268	265
0	2235	295.249056448268	266
0	2236	296	265
0	2242	296.134217041741	266
0	2243	296.134217041741	267
0	2244	297	266
0	2250	297.121051216128	267
0	2251	297.121051216128	268
0	2252	298	267
0	2258	298.434436589629	268
0	2259	298.434436589629	269
0	2260	299	268
0	2266	299.191221733171	269
0	2267	299.191221733171	270
0	2268	300	269
0	2274	300.075817357516	270
0	2275	300.075817357516	271
0	2276	301	270
0	2282	301.240747307344	271
0	2283	301.240747307344	272
0	2284	302	271
0	2290	302.984771417035	272
0	2291	302.984771417035	273
0	2292	303	272
0	2295	304	271
0	2301	304.026913335285	272
0	2302	304.026913335285	273
0	2306	304.271465462447	274
0	2307	304.271465462447	275
0	2308	305	274
0	2314	305.529326221642	275
0	2315	305.529326221642	276
0	2316	306	275
0	2322	306.398305043249	276
0	2323	306.398305043249	277
0	2324	307	276
0	2330	307.134520600733	277
0	2331	307.134520600733	278
0	2335	307.7091411371	279
0	2336	307.7091411371	280
0	2337	308	279
0	2340	309	278
0	2346	309.826939140233	279
0	2347	309.826939140233	280
0	2348	310	279
0	2351	311	278
0	2357	311.820276478681	279
0	2358	311.820276478681	280
0	2359	312	279
0	2365	312.353407360789	280
0	2366	312.353407360789	281
0	2367	313	280
0	2373	313.835959521715	281
0	2374	313.835959521715	282
0	2375	314	281
0	2381	314.543718053566	282
0	2382	314.543718053566	283
0	2383	315	282
0	2389	315.67097147117	283
0	2390	315.67097147117	284
0	2391	316	283
0	2397	316.252267173337	284
0	2398	316.252267173337	285
0	2399	317	284
0	2405	317.000004939525	285
0	2406	317.000004939525	286
0	2407	318	285
0	2413	318.854122149519	286
0	2414	318.854122149519	287
0	2415	319	286
0	2421	319.988114546176	287
0	2422	319.988114546176	288
0	2423	320	287
0	2429	320.855984645239	288
0	2430	320.855984645239	289
0	2431	321	288
0	2437	321.45428941345	289
0	2438	321.45428941345	290
0	2439	322	289
0	2442	323	288
0	2448	323.107961603601	289
0	2449	323.107961603601	290
0	2453	323.594124589613	291
0	2454	323.594124589613	292
0	2458	323.649137352137	293
0	2459	323.649137352137	294
0	2460	324	293
0	2466	324.362525389986	294
0	2467	324.362525389986	295
0	2468	325	294
0	2474	325.030111279239	295
0	2475	325.030111279239	296
0	2476	326	295
0	2482	326.688375845254	296
0	2483	326.688375845254	297
0	2484	327	296
0	2490	327.567329092176	297
0	2491	327.567329092176	298
0	2492	328	297
0	2498	328.94356589995	298
0	2499	328.94356589995	299
0	2500	329	298
0	2506	329.915870278614	299
0	2507	329.915870278614	300
0	2508	330	299
0	2514	330.426556679651	300
0	2515	330.426556679651	301
0	2516	331	300
0	2522	331.894473977272	301
0	2523	331.894473977272	302
0	2524	332	301
0	2527	333	300
0	2533	333.103219521528	301
0	2534	333.103219521528	302
0	2538	333.594335077939	303
0	2539	333.594335077939	304
0	2540	334	303
0	2546	334.770464443517	304
0	2547	334.770464443517	305
0	2548	335	304
0	2554	335.429864431827	305
0	2555	335.429864431827	306
0	2556	336	305
0	2562	336.215717931206	306
0	2563	336.215717931206	307
0	2564	337	306
0	2570	337.468664756993	307
0	2571	337.468664756993	308
0	2572	338	307
0	2578	338.431846471526	308
0	2579	338.431846471526	309
0	2580	339	308
0	2586	339.489002871751	309
0	2587	339.489002871751	310
0	2591	339.536958904492	311
0	2592	339.536958904492	312
0	2593	340	311
0	2599	340.455036503755	312
0	2600	340.455036503755	313
0	2601	341	312
0	2607	341.332711873051	313
0	2608	341.332711873051	314
0	2609	342	313
0	2615	342.261754150411	314
0	2616	342.261754150411	315
0	2617	343	314
0	2620	344	313
0	2626	344.006625231847	314
0	2627	344.006625231847	315
0	2631	344.468966177922	316
0	2632	344.468966177922	317
0	2633	345	316
0	2639	345.877214730974	317
0	2640	345.877214730974	318
0	2641	346	317
0	2647	346.913799977263	318
0	2648	346.913799977263	319
0	2649	347	318
0	2652	348	317
0	2658	348.520864931284	318
0	2659	348.520864931284	319
0	2660	349	318
0	2666	349.468247739169	319
0	2667	349.468247739169	320
0	2668	350	319
0	2674	350.714103726421	320
0	2675	350.714103726421	321
0	2676	351	320
0	2682	351.46815859698	321
0	2683	351.46815859698	322
0	2684	352	321
0	2687	353	320
0	2693	353.118600799771	321
0	2694	353.118600799771	322
0	2698	353.770488380976	323
0	2699	353.770488380976	324
0	2700	354	323
0	2706	354.758912433648	324
0	2707	354.758912433648	325
0	2708	355	324
0	2714	355.822452125065	325
0	2715	355.822452125065	326
0	2719	355.948754509163	327
0	2720	355.948754509163	328
0	2721	356	327
0	2724	357	326
0	2730	357.161124332545	327
0	2731	357.161124332545	328
0	2732	358	327
0	2738	358.135917867963	328
0	2739	358.135917867963	329
0	2743	358.743143445431	330
0	2744	358.743143445431	331
0	2745	359	330
0	2748	360	329
0	2754	360.030413396859	330
0	2755	360.030413396859	331
0	2756	361	330
0	2762	361.052911618647	331
0	2763	361.052911618647	332
0	2767	361.97366039252	333
0	2768	361.97366039252	334
0	2769	362	333
0	2775	362.723829260503	334
0	2776	362.723829260503	335
0	2777	363	334
0	2783	363.696543483219	335
0	2784	363.696543483219	336
0	2785	364	335
0	2791	364.344897932279	336
0	2792	364.344897932279	337
0	2793	365	336
0	2796	366	335
0	2802	366.141501592255	336
0	2803	366.141501592255	337
0	2804	367	336
0	2810	367.85046384051	337
0	2811	367.85046384051	338
0	2812	368	337
0	2815	369	336
0	2821	369.304571837056	337
0	2822	369.304571837056	338
0	2823	370	337
0	2826	371	336
0	2832	371.667404109191	337
0	2833	371.667404109191	338
0	2837	371.853829772673	339
0	2838	371.853829772673	340
0	2839	372	339
0	2845	372.055209860121	340
0	2846	372.055209860121	341
0	2850	372.647445334357	342
0	2851	372.647445334357	343
0	2852	373	342
0	2855	374	341
0	2861	374.406108817939	342
0	2862	374.406108817939	343
0	2863	375	342
0	2869	375.285974717309	343
0	2870	375.285974717309	344
0	2871	376	343
0	2877	376.806751590953	344
0	2878	376.806751590953	345
0	2879	377	344
0	2885	377.822978089595	345
0	2886	377.822978089595	346
0	2887	378	345
0	2890	379	344
0	2896	379.273489911923	345
0	2897	379.273489911923	346
0	2901	379.555210284358	347
0	2902	379.555210284358	348
0	2903	380	347
0	2909	380.482956556492	348
0	2910	380.482956556492	349
0	2911	381	348
0	2917	381.036702017163	349
0	2918	381.036702017163	350
0	2922	381.608704933569	351
0	2923	381.608704933569	352
0	2924	382	351
0	2927	383	350
0	2933	383.054479871228	351
0	2934	383.054479871228	352
0	2935	384	351
0	2941	384.203881288907	352
0	2942	384.203881288907	353
0	2943	385	352
0	2949	385.844851921152	353
0	2950	385.844851921152	354
0	2951	386	353
0	2957	386.440892855928	354
0	2958	386.440892855928	355
0	2962	386.877890902519	356
0	2963	386.877890902519	357
0	2964	387	356
0	2967	388	355
0	2973	388.791722829464	356
0	2974	388.791722829464	357
0	2975	389	356
0	2981	389.028460923647	357
0	2982	389.028460923647	358
0	2983	390	357
0	2989	390.152081852464	358
0	2990	390.152081852464	359
0	2991	391	358
0	2997	391.59875434482	359
0	2998	391.59875434482	360
0	2999	392	359
0	3002	393	358
0	3008	393.07888225405	359
0	3009	393.07888225405	360
0	3010	394	359
0	3016	394.248615632817	360
0	3017	394.248615632817	361
0	3021	394.821512981099	362
0	3022	394.821512981099	363
0	3023	395	362
0	3029	395.837584533375	363
0	3030	395.837584533375	364
0	3031	396	363
0	3034	397	362
0	3040	397.310755438445	363
0	3041	397.310755438445	364
0	3042	398	363
0	3048	398.718949501027	364
0	3049	398.718949501027	365
0	3050	399	364
0	3053	400	363
0	3059	400.152656010713	364
0	3060	400.152656010713	365
0	3064	400.696928138251	366
0	3065	400.696928138251	367
0	3066	401	366
0	3072	401.318961978232	367
0	3073	401.318961978232	368
0	3074	402	367
0	3077	403	366
0	3083	403.60482551794	367
0	3084	403.60482551794	368
0	3085	404	367
0	3091	404.865279394262	368
0	3092	404.865279394262	369
0	3093	405	368
0	3099	405.822037221712	369
0	3100	405.822037221712	370
0	3101	406	369
0	3107	406.306341440462	370
0	3108	406.306341440462	371
0	3112	406.821474359791	372
0	3113	406.821474359791	373
0	3114	407	372
0	3117	408	371
0	3123	408.24950129457	372
0	3124	408.24950129457	373
0	3125	409	372
0	3131	409.497169268317	373
0	3132	409.497169268317	374
0	3136	409.98320346016	375
0	3137	409.98320346016	376
0	3138	410	375
0	3144	410.957202430889	376
0	3145	410.957202430889	377
0	3146	411	376
0	3149	412	375
0	3155	412.097393941531	376
0	3156	412.097393941531	377
0	3160	412.649313543776	378
0	3161	412.649313543776	379
0	3162	413	378
0	3168	413.762982336299	379
0	3169	413.762982336299	380
0	3170	414	379
0	3176	414.921246896856	380
0	3177	414.921246896856	381
0	3178	415	380
0	3181	416	379
0	3187	416.430752367785	380
0	3188	416.430752367785	381
0	3192	416.982307200469	382
0	3193	416.982307200469	383
0	3194	417	382
0	3200	417.441982956241	383
0	3201	417.441982956241	384
0	3202	418	383
0	3208	418.748081350338	384
0	3209	418.748081350338	385
0	3213	418.903710863584	386
0	3214	418.903710863584	387
0	3215	419	386
0	3221	419.415353231213	387
0	3222	419.415353231213	388
0	3223	420	387
0	3229	420.422571544666	388
0	3230	420.422571544666	389
0	3231	421	388
0	3237	421.230758861981	389
0	3238	421.230758861981	390
0	3242	421.762191441245	391
0	3243	421.762191441245	392
0	3244	422	391
0	3247	423	390
0	3253	423.295401513518	391
0	3254	423.295401513518	392
0	3255	424	391
0	3258	425	390
0	3264	425.867199666601	391
0	3265	425.867199666601	392
0	3266	426	391
0	3272	426.495030673553	392
0	3273	426.495030673553	393
0	3277	426.87774832223	394
0	3278	426.87774832223	395
0	3279	427	394
0	3285	427.722262025736	395
0	3286	427.722262025736	396
0	3287	428	395
0	3293	428.914103783332	396
0	3294	428.914103783332	397
0	3295	429	396
0	3298	430	395
0	3304	430.211226466874	396
0	3305	430.211226466874	397
0	3306	431	396
0	3312	431.406225726791	397
0	3313	431.406225726791	398
0	3314	432	397
0	3320	432.550613223361	398
0	3321	432.550613223361	399
0	3322	433	398
0	3328	433.714493857781	399
0	3329	433.714493857781	400
0	3330	434	399
0	3336	434.510533097796	400
0	3337	434.510533097796	401
0	3338	435	400
0	3344	435.176419238538	401
0	3345	435.176419238538	402
0	3346	436	401
0	3349	437	400
0	3355	437.129607014826	401
0	3356	437.129607014826	402
0	3357	438	401
0	3360	439	400
0	3366	439.031067922364	401
0	3367	439.031067922364	402
0	3371	439.858372685861	403