version 3
run k_MM1_lbqf-3-20221127-16:03:34-25264
attr configname k_MM1_lbqf
attr datetime 20221127-16:03:34
attr datetimef 20221127-160334
attr experiment k_MM1_lbqf
attr inifile omnetpp.ini
attr iterationvars "$time=1.0, $num=1, $0=33434, $1=56673, $2=23567"
attr iterationvarsd time=1.0/num=1/33434/56673/23567
attr iterationvarsf time=1.0,num=1,33434,56673,23567-
attr measurement "$time=1.0, $num=1, $0=33434, $1=56673, $2=23567"
attr network lbqfkMM1
attr processid 25264
attr repetition 3
attr replication #3
attr resultdir results
attr runnumber 3
attr seedset 3
itervar num 1
itervar time 1.0
config description "MM1 module k-times lbqf"
config network lbqfkMM1
config **.interArrivalTime "truncnormal(uniform(0.5s, 1.5s), uniform(0.25s, 0.75s))"
config **.serviceTime 1.0s
config **.c 1
config **.capacity 10000
config record-eventlog false
config **.scalar-recording true
config **.vector-recording true
config repeat 4
config seed-1-mt 33434
config seed-2-mt 56673
config seed-3-mt 23567
config output-vector-file k_MM1_lbqf-1-1.0-results/3.vec
config output-scalar-file k_MM1_lbqf-1-1.0-results/3.sca

vector 0 lbqfkMM1.mm1[0] queueLength:vector ETV
attr interpolationmode none
attr recordingmode vector
attr title "queue length"
vector 1 lbqfkMM1.mm1[0] util:vector ETV
attr interpolationmode none
attr recordingmode vector
attr title resources
0	5	10	1
0	6	11	0
0	12	11.290645649544	1
0	13	11.290645649544	2
0	17	11.7447159427	3
0	18	11.7447159427	4
0	19	12	3
0	22	13	2
0	25	14	1
0	31	14.128223294047	2
0	32	14.128223294047	3
0	36	14.756252894364	4
0	37	14.756252894364	5
0	38	15	4
0	44	15.198995251919	5
0	45	15.198995251919	6
0	49	15.387675897256	7
0	50	15.387675897256	8
0	51	16	7
0	57	16.361215612448	8
0	58	16.361215612448	9
0	59	17	8
0	62	18	7
0	68	18.10497647481	8
0	69	18.10497647481	9
0	70	19	8
0	76	19.427607787294	9
0	77	19.427607787294	10
0	81	19.745034261399	11
0	82	19.745034261399	12
0	86	19.998367414651	13
0	87	19.998367414651	14
0	88	20	13
0	94	20.721619472005	14
0	95	20.721619472005	15
0	96	21	14
0	99	22	13
0	105	22.217239612683	14
0	106	22.217239612683	15
0	107	23	14
0	113	23.233640499537	15
0	114	23.233640499537	16
0	115	24	15
0	118	25	14
0	124	25.539628075291	15
0	125	25.539628075291	16
0	126	26	15
0	132	26.796846027276	16
0	133	26.796846027276	17
0	134	27	16
0	140	27.180687055143	17
0	141	27.180687055143	18
0	145	27.884461052057	19
0	146	27.884461052057	20
0	147	28	19
0	153	28.851290761614	20
0	154	28.851290761614	21
0	155	29	20
0	161	29.637852094527	21
0	162	29.637852094527	22
0	163	30	21
0	169	30.537450868283	22
0	170	30.537450868283	23
0	171	31	22
0	177	31.439834843554	23
0	178	31.439834843554	24
0	182	31.800441599489	25
0	183	31.800441599489	26
0	184	32	25
0	187	33	24
0	193	33.09676471564	25
0	194	33.09676471564	26
0	195	34	25
0	201	34.303286721971	26
0	202	34.303286721971	27
0	203	35	26
0	209	35.397906188724	27
0	210	35.397906188724	28
0	211	36	27
0	217	36.310903385342	28
0	218	36.310903385342	29
0	219	37	28
0	225	37.00353596028	29
0	226	37.00353596028	30
0	230	37.399300406556	31
0	231	37.399300406556	32
0	232	38	31
0	238	38.185818420326	32
0	239	38.185818420326	33
0	243	38.466435608355	34
0	244	38.466435608355	35
0	248	38.955869380616	36
0	249	38.955869380616	37
0	250	39	36
0	256	39.864085311916	37
0	257	39.864085311916	38
0	261	39.869151705997	39
0	262	39.869151705997	40
0	263	40	39
0	269	40.202489300019	40
0	270	40.202489300019	41
0	274	40.931232862681	42
0	275	40.931232862681	43
0	276	41	42
0	279	42	41
0	285	42.161529916092	42
0	286	42.161529916092	43
0	290	42.681230028947	44
0	291	42.681230028947	45
0	292	43	44
0	298	43.573859688183	45
0	299	43.573859688183	46
0	300	44	45
0	306	44.178183255818	46
0	307	44.178183255818	47
0	308	45	46
0	314	45.401882577209	47
0	315	45.401882577209	48
0	316	46	47
0	322	46.43127708894	48
0	323	46.43127708894	49
0	327	46.806135265979	50
0	328	46.806135265979	51
0	329	47	50
0	332	48	49
0	338	48.018793835627	50
0	339	48.018793835627	51
0	340	49	50
0	346	49.990680068154	51
0	347	49.990680068154	52
0	348	50	51
0	354	50.236978372158	52
0	355	50.236978372158	53
0	356	51	52
0	359	52	51
0	365	52.226015545222	52
0	366	52.226015545222	53
0	367	53	52
0	373	53.450156291327	53
0	374	53.450156291327	54
0	378	53.474855025735	55
0	379	53.474855025735	56
0	380	54	55
0	386	54.21559526461	56
0	387	54.21559526461	57
0	388	55	56
0	391	56	55
0	397	56.036409549274	56
0	398	56.036409549274	57
0	399	57	56
0	405	57.975834929252	57
0	406	57.975834929252	58
0	407	58	57
0	413	58.809208562958	58
0	414	58.809208562958	59
0	415	59	58
0	421	59.567165996413	59
0	422	59.567165996413	60
0	423	60	59
0	426	61	58
0	432	61.19048253637	59
0	433	61.19048253637	60
0	437	61.829607063638	61
0	438	61.829607063638	62
0	439	62	61
0	445	62.379660463986	62
0	446	62.379660463986	63
0	447	63	62
0	450	64	61
0	456	64.202529493863	62
0	457	64.202529493863	63
0	461	64.758590009952	64
0	462	64.758590009952	65
0	463	65	64
0	469	65.264459782775	65
0	470	65.264459782775	66
0	471	66	65
0	477	66.931863305439	66
0	478	66.931863305439	67
0	479	67	66
0	482	68	65
0	488	68.235340587094	66
0	489	68.235340587094	67
0	493	68.622726480896	68
0	494	68.622726480896	69
0	495	69	68
0	501	69.310197483024	69
0	502	69.310197483024	70
0	503	70	69
0	509	70.233037034386	70
0	510	70.233037034386	71
0	511	71	70
0	514	72	69
0	520	72.535960961861	70
0	521	72.535960961861	71
0	522	73	70
0	528	73.523410142965	71
0	529	73.523410142965	72
0	530	74	71
0	536	74.442732447952	72
0	537	74.442732447952	73
0	538	75	72
0	544	75.232987955585	73
0	545	75.232987955585	74
0	546	76	73
0	552	76.808704731652	74
0	553	76.808704731652	75
0	554	77	74
0	557	78	73
0	563	78.3942484427	74
0	564	78.3942484427	75
0	568	78.87040074785	76
0	569	78.87040074785	77
0	570	79	76
0	573	80	75
0	579	80.651701665462	76
0	580	80.651701665462	77
0	581	81	76
0	587	81.63734732119	77
0	588	81.63734732119	78
0	589	82	77
0	595	82.23059229216	78
0	596	82.23059229216	79
0	597	83	78
0	603	83.220369441858	79
0	604	83.220369441858	80
0	605	84	79
0	611	84.134629375344	80
0	612	84.134629375344	81
0	613	85	80
0	616	86	79
0	622	86.144028185013	80
0	623	86.144028185013	81
0	627	86.952513221385	82
0	628	86.952513221385	83
0	629	87	82
0	632	88	81
0	635	89	80
0	641	89.098426954162	81
0	642	89.098426954162	82
0	643	90	81
0	649	90.194938798523	82
0	650	90.194938798523	83
0	654	90.756145096741	84
0	655	90.756145096741	85
0	656	91	84
0	659	92	83
0	665	92.232390678401	84
0	666	92.232390678401	85
0	667	93	84
0	673	93.200395925833	85
0	674	93.200395925833	86
0	675	94	85
0	681	94.124790413614	86
0	682	94.124790413614	87
0	686	94.539943579569	88
0	687	94.539943579569	89
0	688	95	88
0	694	95.631155178732	89
0	695	95.631155178732	90
0	696	96	89
0	702	96.381541211577	90
0	703	96.381541211577	91
0	704	97	90
0	710	97.915548911084	91
0	711	97.915548911084	92
0	712	98	91
0	715	99	90
0	721	99.857710233292	91
0	722	99.857710233292	92
0	723	100	91
0	729	100.367125319833	92
0	730	100.367125319833	93
0	731	101	92
0	734	102	91
0	740	102.126941085569	92
0	741	102.126941085569	93
0	745	102.687692951738	94
0	746	102.687692951738	95
0	747	103	94
0	750	104	93
0	756	104.005065681844	94
0	757	104.005065681844	95
0	761	104.748026292026	96
0	762	104.748026292026	97
0	763	105	96
0	769	105.8189923209	97
0	770	105.8189923209	98
0	771	106	97
0	774	107	96
0	780	107.196717948539	97
0	781	107.196717948539	98
0	782	108	97
0	788	108.014217094773	98
0	789	108.014217094773	99
0	790	109	98
0	796	109.138757904874	99
0	797	109.138757904874	100
0	801	109.743424753225	101
0	802	109.743424753225	102
0	803	110	101
0	809	110.910530572894	102
0	810	110.910530572894	103
0	814	110.943389354969	104
0	815	110.943389354969	105
0	816	111	104
0	822	111.749718500617	105
0	823	111.749718500617	106
0	824	112	105
0	830	112.091044186751	106
0	831	112.091044186751	107
0	835	112.365597573623	108
0	836	112.365597573623	109
0	837	113	108
0	843	113.887311841449	109
0	844	113.887311841449	110
0	845	114	109
0	851	114.632867066427	110
0	852	114.632867066427	111
0	853	115	110
0	859	115.610847704601	111
0	860	115.610847704601	112
0	861	116	111
0	867	116.00687178403	112
0	868	116.00687178403	113
0	872	116.603198681659	114
0	873	116.603198681659	115
0	874	117	114
0	880	117.035289358367	115
0	881	117.035289358367	116
0	885	117.771069044774	117
0	886	117.771069044774	118
0	887	118	117
0	893	118.303170649992	118
0	894	118.303170649992	119
0	895	119	118
0	901	119.272792337342	119
0	902	119.272792337342	120
0	906	119.598059268084	121
0	907	119.598059268084	122
0	908	120	121
0	914	120.59339788055	122
0	915	120.59339788055	123
0	916	121	122
0	919	122	121
0	925	122.857841697174	122
0	926	122.857841697174	123
0	927	123	122
0	933	123.75883439748	123
0	934	123.75883439748	124
0	935	124	123
0	938	125	122
0	944	125.771831500089	123
0	945	125.771831500089	124
0	946	126	123
0	952	126.84519734561	124
0	953	126.84519734561	125
0	954	127	124
0	960	127.802902375272	125
0	961	127.802902375272	126
0	962	128	125
0	968	128.796346456084	126
0	969	128.796346456084	127
0	970	129	126
0	976	129.484187279215	127
0	977	129.484187279215	128
0	978	130	127
0	981	131	126
0	984	132	125
0	990	132.099252210156	126
0	991	132.099252210156	127
0	992	133	126
0	998	133.552551656481	127
0	999	133.552551656481	128
0	1000	134	127
0	1003	135	126
0	1009	135.310342543944	127
0	1010	135.310342543944	128
0	1011	136	127
0	1017	136.810719407794	128
0	1018	136.810719407794	129
0	1019	137	128
0	1022	138	127
0	1028	138.221642509134	128
0	1029	138.221642509134	129
0	1030	139	128
0	1033	140	127
0	1039	140.354715991973	128
0	1040	140.354715991973	129
0	1041	141	128
0	1047	141.73685253153	129
0	1048	141.73685253153	130
0	1049	142	129
0	1055	142.166424403838	130
0	1056	142.166424403838	131
0	1060	142.403405197834	132
0	1061	142.403405197834	133
0	1062	143	132
0	1065	144	131
0	1071	144.345499708342	132
0	1072	144.345499708342	133
0	1073	145	132
0	1079	145.288514185152	133
0	1080	145.288514185152	134
0	1081	146	133
0	1087	146.785440740074	134
0	1088	146.785440740074	135
0	1089	147	134
0	1092	148	133
0	1098	148.12251978823	134
0	1099	148.12251978823	135
0	1100	149	134
0	1106	149.277687256735	135
0	1107	149.277687256735	136
0	1111	149.939607419568	137
0	1112	149.939607419568	138
0	1113	150	137
0	1119	150.909205097698	138
0	1120	150.909205097698	139
0	1121	151	138
0	1124	152	137
0	1130	152.369816994667	138
0	1131	152.369816994667	139
0	1132	153	138
0	1138	153.594335699613	139
0	1139	153.594335699613	140
0	1140	154	139
0	1143	155	138
0	1149	155.363184719709	139
0	1150	155.363184719709	140
0	1151	156	139
0	1154	157	138
0	1160	157.545696834867	139
0	1161	157.545696834867	140
0	1162	158	139
0	1168	158.781379406096	140
0	1169	158.781379406096	141
0	1170	159	140
0	1173	160	139
0	1179	160.312369608211	140
0	1180	160.312369608211	141
0	1181	161	140
0	1187	161.495466009493	141
0	1188	161.495466009493	142
0	1189	162	141
0	1195	162.267075015234	142
0	1196	162.267075015234	143
0	1197	163	142
0	1203	163.200800135807	143
0	1204	163.200800135807	144
0	1205	164	143
0	1211	164.72683008001	144
0	1212	164.72683008001	145
0	1213	165	144
0	1219	165.197454923055	145
0	1220	165.197454923055	146
0	1221	166	145
0	1227	166.019364640978	146
0	1228	166.019364640978	147
0	1232	166.244985423877	148
0	1233	166.244985423877	149
0	1234	167	148
0	1240	167.06529721715	149
0	1241	167.06529721715	150
0	1242	168	149
0	1248	168.080959800675	150
0	1249	168.080959800675	151
0	1250	169	150
0	1256	169.33389147854	151
0	1257	169.33389147854	152
0	1261	169.944047794253	153
0	1262	169.944047794253	154
0	1263	170	153
0	1269	170.816041772468	154
0	1270	170.816041772468	155
0	1271	171	154
0	1277	171.807456629117	155
0	1278	171.807456629117	156
0	1279	172	155
0	1282	173	154
0	1288	173.746607008121	155
0	1289	173.746607008121	156
0	1290	174	155
0	1296	174.649582742856	156
0	1297	174.649582742856	157
0	1298	175	156
0	1301	176	155
0	1307	176.486943054153	156
0	1308	176.486943054153	157
0	1309	177	156
0	1315	177.142324294754	157
0	1316	177.142324294754	158
0	1317	178	157
0	1323	178.648340860422	158
0	1324	178.648340860422	159
0	1325	179	158
0	1331	179.568341153529	159
0	1332	179.568341153529	160
0	1333	180	159
0	1339	180.904877819955	160
0	1340	180.904877819955	161
0	1341	181	160
0	1347	181.85158123702	161
0	1348	181.85158123702	162
0	1349	182	161
0	1355	182.656385846007	162
0	1356	182.656385846007	163
0	1357	183	162
0	1363	183.365128116776	163
0	1364	183.365128116776	164
0	1365	184	163
0	1371	184.342194063869	164
0	1372	184.342194063869	165
0	1373	185	164
0	1379	185.250937005601	165
0	1380	185.250937005601	166
0	1381	186	165
0	1387	186.863963018993	166
0	1388	186.863963018993	167
0	1389	187	166
0	1392	188	165
0	1395	189	164
0	1401	189.294104602977	165
0	1402	189.294104602977	166
0	1403	190	165
0	1409	190.057262523601	166
0	1410	190.057262523601	167
0	1414	190.91011188798	168
0	1415	190.91011188798	169
0	1416	191	168
0	1419	192	167
0	1425	192.66390659893	168
0	1426	192.66390659893	169
0	1427	193	168
0	1433	193.994751045827	169
0	1434	193.994751045827	170
0	1435	194	169
0	1438	195	168
0	1441	196	167
0	1447	196.87324835279	168
0	1448	196.87324835279	169
0	1449	197	168
0	1452	198	167
0	1458	198.979445405007	168
0	1459	198.979445405007	169
0	1460	199	168
0	1463	200	167
0	1469	200.157069680695	168
0	1470	200.157069680695	169
0	1471	201	168
0	1477	201.147780686791	169
0	1478	201.147780686791	170
0	1479	202	169
0	1485	202.516858197027	170
0	1486	202.516858197027	171
0	1487	203	170
0	1493	203.388479243164	171
0	1494	203.388479243164	172
0	1495	204	171
0	1501	204.712761983068	172
0	1502	204.712761983068	173
0	1503	205	172
0	1509	205.111853900318	173
0	1510	205.111853900318	174
0	1514	205.928991082595	175
0	1515	205.928991082595	176
0	1516	206	175
0	1519	207	174
0	1525	207.204663894362	175
0	1526	207.204663894362	176
0	1530	207.822143358822	177
0	1531	207.822143358822	178
0	1532	208	177
0	1535	209	176
0	1541	209.290387113503	177
0	1542	209.290387113503	178
0	1543	210	177
0	1549	210.433717896993	178
0	1550	210.433717896993	179
0	1551	211	178
0	1557	211.675423304373	179
0	1558	211.675423304373	180
0	1559	212	179
0	1562	213	178
0	1568	213.487958335123	179
0	1569	213.487958335123	180
0	1570	214	179
0	1573	215	178
0	1579	215.279119239596	179
0	1580	215.279119239596	180
0	1581	216	179
0	1587	216.079983646364	180
0	1588	216.079983646364	181
0	1589	217	180
0	1595	217.503653145757	181
0	1596	217.503653145757	182
0	1600	217.519038214597	183
0	1601	217.519038214597	184
0	1605	217.911949791589	185
0	1606	217.911949791589	186
0	1607	218	185
0	1610	219	184
0	1616	219.679987939628	185
0	1617	219.679987939628	186
0	1618	220	185
0	1621	221	184
0	1627	221.271152576419	185
0	1628	221.271152576419	186
0	1629	222	185
0	1635	222.751536055947	186
0	1636	222.751536055947	187
0	1637	223	186
0	1640	224	185
0	1646	224.010915399839	186
0	1647	224.010915399839	187
0	1651	224.42784589768	188
0	1652	224.42784589768	189
0	1653	225	188
0	1659	225.496516511388	189
0	1660	225.496516511388	190
0	1661	226	189
0	1667	226.675290896902	190
0	1668	226.675290896902	191
0	1669	227	190
0	1675	227.519618746896	191
0	1676	227.519618746896	192
0	1677	228	191
0	1683	228.100537970448	192
0	1684	228.100537970448	193
0	1688	228.719133454798	194
0	1689	228.719133454798	195
0	1693	228.840166892079	196
0	1694	228.840166892079	197
0	1695	229	196
0	1698	230	195
0	1704	230.454480842399	196
0	1705	230.454480842399	197
0	1706	231	196
0	1712	231.322492825889	197
0	1713	231.322492825889	198
0	1714	232	197
0	1720	232.498996756824	198
0	1721	232.498996756824	199
0	1722	233	198
0	1728	233.00539720619	199
0	1729	233.00539720619	200
0	1733	233.94435715228	201
0	1734	233.94435715228	202
0	1735	234	201
0	1738	235	200
0	1741	236	199
0	1747	236.319895336527	200
0	1748	236.319895336527	201
0	1752	236.713090091538	202
0	1753	236.713090091538	203
0	1754	237	202
0	1760	237.377587944937	203
0	1761	237.377587944937	204
0	1762	238	203
0	1768	238.970054082221	204
0	1769	238.970054082221	205
0	1770	239	204
0	1773	240	203
0	1779	240.061264401479	204
0	1780	240.061264401479	205
0	1784	240.442548739402	206
0	1785	240.442548739402	207
0	1786	241	206
0	1792	241.537714985482	207
0	1793	241.537714985482	208
0	1794	242	207
0	1797	243	206
0	1803	243.575427547153	207
0	1804	243.575427547153	208
0	1805	244	207
0	1808	245	206
0	1814	245.07816165681	207
0	1815	245.07816165681	208
0	1819	245.526159667466	209
0	1820	245.526159667466	210
0	1821	246	209
0	1827	246.300540558668	210
0	1828	246.300540558668	211
0	1829	247	210
0	1835	247.218526768904	211
0	1836	247.218526768904	212
0	1837	248	211
0	1843	248.184952348848	212
0	1844	248.184952348848	213
0	1848	248.722143401654	214
0	1849	248.722143401654	215
0	1850	249	214
0	1853	250	213
0	1859	250.190753180142	214
0	1860	250.190753180142	215
0	1861	251	214
0	1864	252	213
0	1870	252.504408088137	214
0	1871	252.504408088137	215
0	1875	252.864417773785	216
0	1876	252.864417773785	217
0	1877	253	216
0	1880	254	215
0	1886	254.958655019498	216
0	1887	254.958655019498	217
0	1888	255	216
0	1894	255.810760581556	217
0	1895	255.810760581556	218
0	1896	256	217
0	1899	257	216
0	1905	257.193618453085	217
0	1906	257.193618453085	218
0	1907	258	217
0	1910	259	216
0	1916	259.249301500496	217
0	1917	259.249301500496	218
0	1918	260	217
0	1924	260.322047551942	218
0	1925	260.322047551942	219
0	1929	260.803212241036	220
0	1930	260.803212241036	221
0	1931	261	220
0	1934	262	219
0	1940	262.195446571688	220
0	1941	262.195446571688	221
0	1942	263	220
0	1948	263.440494365997	221
0	1949	263.440494365997	222
0	1950	264	221
0	1956	264.411612661519	222
0	1957	264.411612661519	223
0	1958	265	222
0	1964	265.027766649893	223
0	1965	265.027766649893	224
0	1969	265.887170175475	225
0	1970	265.887170175475	226
0	1971	266	225
0	1977	266.916340161187	226
0	1978	266.916340161187	227
0	1979	267	226
0	1985	267.201120789196	227
0	1986	267.201120789196	228
0	1987	268	227
0	1993	268.556062393772	228
0	1994	268.556062393772	229
0	1998	268.918697388012	230
0	1999	268.918697388012	231
0	2000	269	230
0	2006	269.662242582343	231
0	2007	269.662242582343	232
0	2008	270	231
0	2011	271	230
0	2017	271.608107560549	231
0	2018	271.608107560549	232
0	2019	272	231
0	2025	272.560163775641	232
0	2026	272.560163775641	233
0	2027	273	232
0	2030	274	231
0	2036	274.158918066846	232
0	2037	274.158918066846	233
0	2038	275	232
0	2044	275.442613632195	233
0	2045	275.442613632195	234
0	2046	276	233
0	2052	276.782472781253	234
0	2053	276.782472781253	235
0	2054	277	234
0	2060	277.556806439173	235
0	2061	277.556806439173	236
0	2062	278	235
0	2068	278.112774849701	236
0	2069	278.112774849701	237
0	2070	279	236
0	2076	279.401455410035	237
0	2077	279.401455410035	238
0	2078	280	237
0	2084	280.038530887716	238
0	2085	280.038530887716	239
0	2089	280.462364953339	240
0	2090	280.462364953339	241
0	2091	281	240
0	2094	282	239
0	2100	282.442128544968	240
0	2101	282.442128544968	241
0	2105	282.825715815989	242
0	2106	282.825715815989	243
0	2110	282.890798445334	244
0	2111	282.890798445334	245
0	2112	283	244
0	2118	283.979793830714	245
0	2119	283.979793830714	246
0	2120	284	245
0	2126	284.567482141425	246
0	2127	284.567482141425	247
0	2128	285	246
0	2134	285.419893006269	247
0	2135	285.419893006269	248
0	2136	286	247
0	2142	286.232670910578	248
0	2143	286.232670910578	249
0	2144	287	248
0	2150	287.974898221974	249
0	2151	287.974898221974	250
0	2152	288	249
0	2155	289	248
0	2161	289.859706579916	249
0	2162	289.859706579916	250
0	2163	290	249
0	2166	291	248
0	2172	291.735259150848	249
0	2173	291.735259150848	250
0	2174	292	249
0	2180	292.843819783408	250
0	2181	292.843819783408	251
0	2182	293	250
0	2188	293.738828990517	251
0	2189	293.738828990517	252
0	2190	294	251
0	2196	294.684251054594	252
0	2197	294.684251054594	253
0	2198	295	252
0	2204	295.993852828021	253
0	2205	295.993852828021	254
0	2206	296	253
0	2212	296.949408734451	254
0	2213	296.949408734451	255
0	2214	297	254
0	2217	298	253
0	2223	298.880549090472	254
0	2224	298.880549090472	255
0	2225	299	254
0	2228	300	253
0	2234	300.230973551512	254
0	2235	300.230973551512	255
0	2236	301	254
0	2242	301.377311099489	255
0	2243	301.377311099489	256
0	2244	302	255
0	2247	303	254
0	2253	303.09590452779	255
0	2254	303.09590452779	256
0	2255	304	255
0	2261	304.481214591763	256
0	2262	304.481214591763	257
0	2263	305	256
0	2266	306	255
0	2272	306.003989997942	256
0	2273	306.003989997942	257
0	2277	306.858264826744	258
0	2278	306.858264826744	259
0	2279	307	258
0	2282	308	257
0	2288	308.085971074816	258
0	2289	308.085971074816	259
0	2290	309	258
0	2296	309.489420125578	259
0	2297	309.489420125578	260
0	2298	310	259
0	2304	310.631437310898	260
0	2305	310.631437310898	261
0	2306	311	260
0	2309	312	259
0	2315	312.168632005917	260
0	2316	312.168632005917	261
0	2320	312.973267884465	262
0	2321	312.973267884465	263
0	2322	313	262
0	2328	313.25076929928	263
0	2329	313.25076929928	264
0	2333	313.898759168387	265
0	2334	313.898759168387	266
0	2335	314	265
0	2341	314.629924162172	266
0	2342	314.629924162172	267
0	2343	315	266
0	2349	315.824772980677	267
0	2350	315.824772980677	268
0	2351	316	267
0	2357	316.842181301955	268
0	2358	316.842181301955	269
0	2359	317	268
0	2365	317.134491698414	269
0	2366	317.134491698414	270
0	2367	318	269
0	2373	318.221987790127	270
0	2374	318.221987790127	271
0	2378	318.277642837395	272
0	2379	318.277642837395	273
0	2380	319	272
0	2386	319.033462548033	273
0	2387	319.033462548033	274
0	2391	319.128135379942	275
0	2392	319.128135379942	276
0	2393	320	275
0	2399	320.224838522073	276
0	2400	320.224838522073	277
0	2404	320.672112879384	278
0	2405	320.672112879384	279
0	2406	321	278
0	2412	321.95868244812	279
0	2413	321.95868244812	280
0	2414	322	279
0	2417	323	278
0	2423	323.21090324452	279
0	2424	323.21090324452	280
0	2425	324	279
0	2431	324.011038818215	280
0	2432	324.011038818215	281
0	2436	324.049284995793	282
0	2437	324.049284995793	283
0	2438	325	282
0	2444	325.071626401692	283
0	2445	325.071626401692	284
0	2449	325.333191416193	285
0	2450	325.333191416193	286
0	2451	326	285
0	2454	327	284
0	2460	327.015849606207	285
0	2461	327.015849606207	286
0	2462	328	285
0	2468	328.384469459853	286
0	2469	328.384469459853	287
0	2470	329	286
0	2473	330	285
0	2479	330.317869308907	286
0	2480	330.317869308907	287
0	2481	331	286
0	2487	331.305983146903	287
0	2488	331.305983146903	288
0	2489	332	287
0	2495	332.837816233253	288
0	2496	332.837816233253	289
0	2497	333	288
0	2500	334	287
0	2506	334.672173758846	288
0	2507	334.672173758846	289
0	2508	335	288
0	2514	335.378697345816	289
0	2515	335.378697345816	290
0	2516	336	289
0	2519	337	288
0	2525	337.059377689595	289
0	2526	337.059377689595	290
0	2530	337.896336326154	291
0	2531	337.896336326154	292
0	2532	338	291
0	2538	338.283764275418	292
0	2539	338.283764275418	293
0	2540	339	292
0	2546	339.236057909025	293
0	2547	339.236057909025	294
0	2551	339.85428022535	295
0	2552	339.85428022535	296
0	2553	340	295
0	2556	341	294
0	2562	341.286364056949	295
0	2563	341.286364056949	296
0	2564	342	295
0	2570	342.047832865849	296
0	2571	342.047832865849	297
0	2572	343	296
0	2578	343.254384356106	297
0	2579	343.254384356106	298
0	2580	344	297
0	2586	344.973810344133	298
0	2587	344.973810344133	299
0	2588	345	298
0	2594	345.27004008837	299
0	2595	345.27004008837	300
0	2596	346	299
0	2602	346.086681637149	300
0	2603	346.086681637149	301
0	2604	347	300
0	2610	347.804305387	301
0	2611	347.804305387	302
0	2612	348	301
0	2618	348.788986698247	302
0	2619	348.788986698247	303
0	2620	349	302
0	2626	349.805527185571	303
0	2627	349.805527185571	304
0	2628	350	303
0	2634	350.864945185107	304
0	2635	350.864945185107	305
0	2636	351	304
0	2642	351.597171811355	305
0	2643	351.597171811355	306
0	2644	352	305
0	2647	353	304
0	2653	353.132365069029	305
0	2654	353.132365069029	306
0	2655	354	305
0	2661	354.416785125429	306
0	2662	354.416785125429	307
0	2663	355	306
0	2669	355.385846414821	307
0	2670	355.385846414821	308
0	2671	356	307
0	2677	356.82789020418	308
0	2678	356.82789020418	309
0	2682	356.966852949433	310
0	2683	356.966852949433	311
0	2684	357	310
0	2687	358	309
0	2693	358.287869616496	310
0	2694	358.287869616496	311
0	2695	359	310
0	2701	359.921056108532	311
0	2702	359.921056108532	312
0	2703	360	311
0	2706	361	310
0	2712	361.536265025963	311
0	2713	361.536265025963	312
0	2714	362	311
0	2720	362.422537542251	312
0	2721	362.422537542251	313
0	2722	363	312
0	2728	363.715818970272	313
0	2729	363.715818970272	314
0	2730	364	313
0	2736	364.936692004755	314
0	2737	364.936692004755	315
0	2738	365	314
0	2744	365.097186360632	315
0	2745	365.097186360632	316
0	2746	366	315
0	2752	366.168202065339	316
0	2753	366.168202065339	317
0	2754	367	316
0	2760	367.242318460112	317
0	2761	367.242318460112	318
0	2762	368	317
0	2768	368.532960710352	318
0	2769	368.532960710352	319
0	2770	369	318
0	2776	369.918804296611	319
0	2777	369.918804296611	320
0	2778	370	319
0	2784	370.884440954785	320
0	2785	370.884440954785	321
0	2786	371	320
0	2792	371.537267869829	321
0	2793	371.537267869829	322
0	2794	372	321
0	2800	372.668434450999	322
0	2801	372.668434450999	323
0	2805	372.941664574752	324
0	2806	372.941664574752	325
0	2807	373	324
0	2813	373.960799183699	325
0	2814	373.960799183699	326
0	2815	374	325
0	2818	375	324
0	2824	375.349087623371	325
0	2825	375.349087623371	326
0	2829	375.942374086082	327
0	2830	375.942374086082	328
0	2831	376	327
0	2837	376.549184473223	328
0	2838	376.549184473223	329
0	2839	377	328
0	2842	378	327
0	2848	378.343770992028	328
0	2849	378.343770992028	329
0	2853	378.510516888095	330
0	2854	378.510516888095	331
0	2855	379	330
0	2861	379.857683773174	331
0	2862	379.857683773174	332
0	2863	380	331
0	2869	380.753978526943	332
0	2870	380.753978526943	333
0	2871	381	332
0	2874	382	331
0	2880	382.030675469013	332
0	2881	382.030675469013	333
0	2882	383	332
0	2888	383.24971067743	333
0	2889	383.24971067743	334
0	2893	383.686625419479	335
0	2894	383.686625419479	336
0	2895	384	335
0	2898	385	334
0	2904	385.280190076502	335
0	2905	385.280190076502	336
0	2906	386	335
0	2912	386.920960078047	336
0	2913	386.920960078047	337
0	2914	387	336
0	2920	387.726968442895	337
0	2921	387.726968442895	338
0	2925	387.833527043736	339
0	2926	387.833527043736	340
0	2927	388	339
0	2930	389	338
0	2936	389.488710885656	339
0	2937	389.488710885656	340
0	2938	390	339
0	2944	390.349265059251	340
0	2945	390.349265059251	341
0	2946	391	340
0	2952	391.920154787152	341
0	2953	391.920154787152	342
0	2954	392	341
0	2960	392.442823810779	342
0	2961	392.442823810779	343
0	2962	393	342
0	2968	393.982247494342	343
0	2969	393.982247494342	344
0	2970	394	343
0	2973	395	342
0	2979	395.548776769115	343
0	2980	395.548776769115	344
0	2981	396	343
0	2987	396.431103438955	344
0	2988	396.431103438955	345
0	2989	397	344
0	2992	398	343
0	2998	398.034735159807	344
0	2999	398.034735159807	345
0	3000	399	344
0	3006	399.399633809319	345
0	3007	399.399633809319	346
0	3008	400	345
0	3014	400.813880119892	346
0	3015	400.813880119892	347
0	3016	401	346
0	3019	402	345
0	3025	402.272442858824	346
0	3026	402.272442858824	347
0	3027	403	346
0	3030	404	345
0	3036	404.541843225853	346
0	3037	404.541843225853	347
0	3038	405	346
0	3044	405.367888864195	347
0	3045	405.367888864195	348
0	3046	406	347
0	3052	406.671761274484	348
0	3053	406.671761274484	349
0	3054	407	348
0	3060	407.969518388751	349
0	3061	407.969518388751	350
0	3062	408	349
0	3065	409	348
0	3071	409.333165837409	349
0	3072	409.333165837409	350
0	3073	410	349
0	3079	410.826001264742	350
0	3080	410.826001264742	351
0	3081	411	350
0	3084	412	349
0	3090	412.331561972662	350
0	3091	412.331561972662	351
0	3095	412.426918532055	352
0	3096	412.426918532055	353
0	3097	413	352
0	3103	413.617821750778	353
0	3104	413.617821750778	354
0	3105	414	353
0	3108	415	352
0	3114	415.180479199679	353
0	3115	415.180479199679	354
0	3116	416	353
0	3122	416.49178503272	354
0	3123	416.49178503272	355
0	3124	417	354
0	3127	418	353
0	3133	418.193525253641	354
0	3134	418.193525253641	355
0	3135	419	354
0	3141	419.195670369151	355
0	3142	419.195670369151	356
0	3143	420	355
0	3149	420.339001192964	356
0	3150	420.339001192964	357
0	3154	420.437469452801	358
0	3155	420.437469452801	359
0	3156	421	358
0	3162	421.594791360522	359
0	3163	421.594791360522	360
0	3167	421.916308139016	361
0	3168	421.916308139016	362
0	3169	422	361
0	3175	422.569160105689	362
0	3176	422.569160105689	363
0	3177	423	362
0	3183	423.602798245713	363
0	3184	423.602798245713	364
0	3185	424	363
0	3191	424.85518565144	364
0	3192	424.85518565144	365
0	3193	425	364
0	3199	425.743414976127	365
0	3200	425.743414976127	366
0	3201	426	365
0	3204	427	364
0	3210	427.191024814341	365
0	3211	427.191024814341	366
0	3215	427.665834833472	367
0	3216	427.665834833472	368
0	3217	428	367
0	3220	429	366
0	3226	429.548961851337	367
0	3227	429.548961851337	368
0	3228	430	367
0	3234	430.390194514851	368
0	3235	430.390194514851	369
0	3236	431	368
0	3242	431.15713374897	369
0	3243	431.15713374897	370
0	3247	431.208205226485	371
0	3248	431.208205226485	372
0	3249	432	371
0	3255	432.513743842875	372
0	3256	432.513743842875	373
0	3257	433	372
0	3260	434	371
0	3263	435	370
0	3269	435.553012763379	371
0	3270	435.553012763379	372
0	3271	436	371
0	3277	436.546305619217	372
0	3278	436.546305619217	373
0	3279	437	372
0	3285	437.108563546687	373
0	3286	437.108563546687	374
0	3290	437.161474959586	375
0	3291	437.161474959586	376
0	3292	438	375
0	3298	438.799551898512	376
0	3299	438.799551898512	377
0	3300	439	376
0	3303	440	375
0	3309	440.032239641403	376
0	3310	440.032239641403	377
0	3311	441	376
0	3317	441.337239276032	377
0	3318	441.337239276032	378
0	3319	442	377
0	3325	442.080551597183	378
0	3326	442.080551597183	379
0	3327	443	378
0	3333	443.821883981798	379
0	3334	443.821883981798	380
0	3335	444	379
0	3338	445	378
0	3344	445.315216977681	379
0	3345	445.315216977681	380
0	3349	445.503698420378	381
0	3350	445.503698420378	382
0	3351	446	381
0	3354	447	380
0	3360	447.699270410938	381
0	3361	447.699270410938	382
0	3362	448	381
0	3365	449	380
0	3371	449.206711742054	381
0	3372	449.206711742054	382
0	3376	449.819471178995	383
0	3377	449.819471178995	384
0	3378	450	383
0	3384	450.957877819451	384
0	3385	450.957877819451	385
0	3386	451	384
0	3389	452	383