version 3
run MMc-0-20221127-11:38:40-7588
attr configname MMc
attr datetime 20221127-11:38:40
attr datetimef 20221127-113840
attr experiment MMc
attr inifile omnetpp.ini
attr iterationvars "$mean=uniform(0.5s, 1.5s), $dev=0.5*(uniform(0.5s, 1.5s)), $time=1.0, $num=1, $0=53542, $1=75335, $2=34542"
attr iterationvarsd mean=uniform(0.5s,_1.5s)/dev=0.5#2a(uniform(0.5s,_1.5s))/time=1.0/num=1/53542/75335/34542
attr iterationvarsf mean=uniform(0.5s,_1.5s),dev=0.5#2a(uniform(0.5s,_1.5s)),time=1.0,num=1,53542,75335,34542-
attr measurement "$mean=uniform(0.5s, 1.5s), $dev=0.5*(uniform(0.5s, 1.5s)), $time=1.0, $num=1, $0=53542, $1=75335, $2=34542"
attr network MMc
attr processid 7588
attr repetition 0
attr replication #0
attr resultdir results
attr runnumber 0
attr seedset 0
itervar dev "0.5*(uniform(0.5s, 1.5s))"
itervar mean "uniform(0.5s, 1.5s)"
itervar num 1
itervar time 1.0
config description "MMc module"
config network MMc
config MMc.source.interArrivalTime "truncnormal(uniform(0.5s, 1.5s), 0.5*(uniform(0.5s, 1.5s)))"
config MMc.mmc.serviceTime 1.0s
config MMc.mmc.c 1
config MMc.mmc.capacity 10000
config record-eventlog false
config **.scalar-recording true
config **.vector-recording true
config repeat 4
config seed-1-mt 53542
config seed-2-mt 75335
config seed-3-mt 34542
config output-vector-file MMc-1-1.0-results/0.vec
config output-scalar-file MMc-1-1.0-results/0.sca

vector 0 MMc.mmc queueLength:vector ETV
attr interpolationmode none
attr recordingmode vector
attr title "queue length"
vector 1 MMc.mmc util:vector ETV
attr interpolationmode none
attr recordingmode vector
attr title resources
0	0	0	0
0	3	10	1
0	4	11	0
0	7	11.532277459676	1
0	8	11.532277459676	2
0	9	12	1
0	11	13	0
0	14	13.123824331901	1
0	15	13.123824331901	2
0	17	13.442351474733	3
0	18	13.442351474733	4
0	19	14	3
0	21	15	2
0	24	15.168034000583	3
0	25	15.168034000583	4
0	26	16	3
0	29	16.255491475351	4
0	30	16.255491475351	5
0	32	16.748611212898	6
0	33	16.748611212898	7
0	34	17	6
0	36	18	5
0	39	18.340575826443	6
0	40	18.340575826443	7
0	42	18.804872850867	8
0	43	18.804872850867	9
0	44	19	8
0	46	20	7
0	49	20.116346580964	8
0	50	20.116346580964	9
0	51	21	8
0	54	21.837507913059	9
0	55	21.837507913059	10
0	56	22	9
0	58	23	8
0	61	23.590407782555	9
0	62	23.590407782555	10
0	63	24	9
0	66	24.167881149401	10
0	67	24.167881149401	11
0	69	24.455960020282	12
0	70	24.455960020282	13
0	71	25	12
0	73	26	11
0	76	26.50199007642	12
0	77	26.50199007642	13
0	78	27	12
0	81	27.565275078525	13
0	82	27.565275078525	14
0	83	28	13
0	86	28.981916441972	14
0	87	28.981916441972	15
0	88	29	14
0	90	30	13
0	93	30.022563450188	14
0	94	30.022563450188	15
0	95	31	14
0	98	31.217553902414	15
0	99	31.217553902414	16
0	100	32	15
0	102	33	14
0	105	33.204887804925	15
0	106	33.204887804925	16
0	107	34	15
0	110	34.046811970988	16
0	111	34.046811970988	17
0	112	35	16
0	115	35.864089316173	17
0	116	35.864089316173	18
0	117	36	17
0	120	36.946474922379	18
0	121	36.946474922379	19
0	122	37	18
0	125	37.657829390647	19
0	126	37.657829390647	20
0	127	38	19
0	130	38.233994364196	20
0	131	38.233994364196	21
0	132	39	20
0	135	39.111898160727	21
0	136	39.111898160727	22
0	137	40	21
0	140	40.406163475239	22
0	141	40.406163475239	23
0	142	41	22
0	145	41.451523600438	23
0	146	41.451523600438	24
0	147	42	23
0	150	42.249611840778	24
0	151	42.249611840778	25
0	153	42.955510414936	26
0	154	42.955510414936	27
0	155	43	26
0	158	43.522198685798	27
0	159	43.522198685798	28
0	160	44	27
0	163	44.718006085383	28
0	164	44.718006085383	29
0	165	45	28
0	168	45.051447302598	29
0	169	45.051447302598	30
0	170	46	29
0	173	46.289268371929	30
0	174	46.289268371929	31
0	175	47	30
0	178	47.886918093738	31
0	179	47.886918093738	32
0	180	48	31
0	183	48.58985177667	32
0	184	48.58985177667	33
0	185	49	32
0	188	49.70566522878	33
0	189	49.70566522878	34
0	190	50	33
0	193	50.876288787732	34
0	194	50.876288787732	35
0	195	51	34
0	198	51.42145760328	35
0	199	51.42145760328	36
0	200	52	35
0	203	52.124899661092	36
0	204	52.124899661092	37
0	205	53	36
0	208	53.564635936914	37
0	209	53.564635936914	38
0	211	53.62389966247	39
0	212	53.62389966247	40
0	213	54	39
0	216	54.155286512072	40
0	217	54.155286512072	41
0	218	55	40
0	221	55.455354233639	41
0	222	55.455354233639	42
0	223	56	41
0	226	56.415008105082	42
0	227	56.415008105082	43
0	228	57	42
0	231	57.440736130889	43
0	232	57.440736130889	44
0	233	58	43
0	236	58.567090451828	44
0	237	58.567090451828	45
0	238	59	44
0	241	59.1616826868	45
0	242	59.1616826868	46
0	243	60	45
0	246	60.302239772141	46
0	247	60.302239772141	47
0	248	61	46
0	251	61.656738231918	47
0	252	61.656738231918	48
0	253	62	47
0	256	62.712948753434	48
0	257	62.712948753434	49
0	258	63	48
0	261	63.02649706159	49
0	262	63.02649706159	50
0	264	63.12155535667	51
0	265	63.12155535667	52
0	267	63.629001784801	53
0	268	63.629001784801	54
0	270	63.632860136267	55
0	271	63.632860136267	56
0	272	64	55
0	274	65	54
0	277	65.833419501458	55
0	278	65.833419501458	56
0	279	66	55
0	282	66.343374398232	56
0	283	66.343374398232	57
0	284	67	56
0	287	67.533112162574	57
0	288	67.533112162574	58
0	290	67.958943262063	59
0	291	67.958943262063	60
0	292	68	59
0	295	68.515023890973	60
0	296	68.515023890973	61
0	297	69	60
0	300	69.556566288486	61
0	301	69.556566288486	62
0	303	69.726015385948	63
0	304	69.726015385948	64
0	305	70	63
0	308	70.158266319718	64
0	309	70.158266319718	65
0	310	71	64
0	313	71.075896386142	65
0	314	71.075896386142	66
0	315	72	65
0	318	72.671319214273	66
0	319	72.671319214273	67
0	320	73	66
0	323	73.518958904316	67
0	324	73.518958904316	68
0	325	74	67
0	328	74.048002380608	68
0	329	74.048002380608	69
0	330	75	68
0	333	75.503270317003	69
0	334	75.503270317003	70
0	335	76	69
0	338	76.733710214074	70
0	339	76.733710214074	71
0	340	77	70
0	342	78	69
0	345	78.381635785138	70
0	346	78.381635785138	71
0	347	79	70
0	350	79.215870749227	71
0	351	79.215870749227	72
0	353	79.756029593024	73
0	354	79.756029593024	74
0	356	79.952859527455	75
0	357	79.952859527455	76
0	358	80	75
0	360	81	74
0	362	82	73
0	365	82.133051923283	74
0	366	82.133051923283	75
0	367	83	74
0	369	84	73
0	372	84.157032546623	74
0	373	84.157032546623	75
0	374	85	74
0	377	85.167395384512	75
0	378	85.167395384512	76
0	379	86	75
0	382	86.611765047516	76
0	383	86.611765047516	77
0	384	87	76
0	386	88	75
0	389	88.296079912613	76
0	390	88.296079912613	77
0	391	89	76
0	394	89.303602321285	77
0	395	89.303602321285	78
0	396	90	77
0	399	90.080266731928	78
0	400	90.080266731928	79
0	402	90.935761372653	80
0	403	90.935761372653	81
0	404	91	80
0	406	92	79
0	409	92.472645437207	80
0	410	92.472645437207	81
0	411	93	80
0	414	93.54540979132	81
0	415	93.54540979132	82
0	416	94	81
0	419	94.571102216884	82
0	420	94.571102216884	83
0	421	95	82
0	424	95.50441016607	83
0	425	95.50441016607	84
0	426	96	83
0	429	96.235698323644	84
0	430	96.235698323644	85
0	431	97	84
0	434	97.771290017696	85
0	435	97.771290017696	86
0	436	98	85
0	439	98.655182638815	86
0	440	98.655182638815	87
0	441	99	86
0	444	99.982231703981	87
0	445	99.982231703981	88
0	446	100	87
0	448	101	86
0	451	101.500891660891	87
0	452	101.500891660891	88
0	453	102	87
0	456	102.70700435537	88
0	457	102.70700435537	89
0	458	103	88
0	461	103.747468490381	89
0	462	103.747468490381	90
0	463	104	89
0	466	104.380810169041	90
0	467	104.380810169041	91
0	468	105	90
0	471	105.321148233288	91
0	472	105.321148233288	92
0	474	105.444334076068	93
0	475	105.444334076068	94
0	476	106	93
0	479	106.211587494363	94
0	480	106.211587494363	95
0	481	107	94
0	484	107.060843356284	95
0	485	107.060843356284	96
0	486	108	95
0	489	108.308358761989	96
0	490	108.308358761989	97
0	492	108.973337440081	98
0	493	108.973337440081	99
0	494	109	98
0	497	109.724138037998	99
0	498	109.724138037998	100
0	500	109.98891196391	101
0	501	109.98891196391	102
0	502	110	101
0	505	110.766029628424	102
0	506	110.766029628424	103
0	507	111	102
0	510	111.930260240516	103
0	511	111.930260240516	104
0	512	112	103
0	514	113	102
0	517	113.451118128763	103
0	518	113.451118128763	104
0	519	114	103
0	522	114.423913435314	104
0	523	114.423913435314	105
0	525	114.823335384472	106
0	526	114.823335384472	107
0	527	115	106
0	530	115.140010018098	107
0	531	115.140010018098	108
0	532	116	107
0	535	116.076627755353	108
0	536	116.076627755353	109
0	537	117	108
0	540	117.472178919216	109
0	541	117.472178919216	110
0	542	118	109
0	545	118.256877556559	110
0	546	118.256877556559	111
0	547	119	110
0	549	120	109
0	552	120.135763907024	110
0	553	120.135763907024	111
0	554	121	110
0	557	121.161520320793	111
0	558	121.161520320793	112
0	559	122	111
0	562	122.153237449519	112
0	563	122.153237449519	113
0	565	122.818580045592	114
0	566	122.818580045592	115
0	567	123	114
0	570	123.832756938202	115
0	571	123.832756938202	116
0	572	124	115
0	575	124.771899687694	116
0	576	124.771899687694	117
0	577	125	116
0	580	125.993929867563	117
0	581	125.993929867563	118
0	582	126	117
0	584	127	116
0	587	127.105276368247	117
0	588	127.105276368247	118
0	590	127.733465905928	119
0	591	127.733465905928	120
0	592	128	119
0	595	128.918216257184	120
0	596	128.918216257184	121
0	597	129	120
0	600	129.835402056534	121
0	601	129.835402056534	122
0	602	130	121
0	604	131	120
0	606	132	119
0	609	132.115832453813	120
0	610	132.115832453813	121
0	611	133	120
0	613	134	119
0	616	134.246871233202	120
0	617	134.246871233202	121
0	618	135	120
0	621	135.649889546687	121
0	622	135.649889546687	122
0	623	136	121
0	625	137	120
0	628	137.484973337373	121
0	629	137.484973337373	122
0	630	138	121
0	633	138.879153997944	122
0	634	138.879153997944	123
0	635	139	122
0	638	139.869657029357	123
0	639	139.869657029357	124
0	640	140	123
0	642	141	122
0	645	141.599768333192	123
0	646	141.599768333192	124
0	647	142	123
0	649	143	122
0	652	143.932934667506	123
0	653	143.932934667506	124
0	654	144	123
0	656	145	122
0	659	145.047690549042	123
0	660	145.047690549042	124
0	662	145.100946235918	125
0	663	145.100946235918	126
0	665	145.545583623899	127
0	666	145.545583623899	128
0	667	146	127
0	670	146.572584659051	128
0	671	146.572584659051	129
0	672	147	128
0	675	147.768186083176	129
0	676	147.768186083176	130
0	677	148	129
0	680	148.888225988038	130
0	681	148.888225988038	131
0	682	149	130
0	684	150	129
0	687	150.495149225891	130
0	688	150.495149225891	131
0	689	151	130
0	692	151.914418357556	131
0	693	151.914418357556	132
0	694	152	131
0	697	152.869197579166	132
0	698	152.869197579166	133
0	699	153	132
0	701	154	131
0	703	155	130
0	706	155.321923878832	131
0	707	155.321923878832	132
0	708	156	131
0	710	157	130
0	713	157.035263721305	131
0	714	157.035263721305	132
0	716	157.862615302925	133
0	717	157.862615302925	134
0	718	158	133
0	721	158.244148394014	134
0	722	158.244148394014	135
0	723	159	134
0	726	159.325523704484	135
0	727	159.325523704484	136
0	729	159.770641687177	137
0	730	159.770641687177	138
0	731	160	137
0	734	160.335965030902	138
0	735	160.335965030902	139
0	737	160.605640080568	140
0	738	160.605640080568	141
0	739	161	140
0	742	161.567509744047	141
0	743	161.567509744047	142
0	744	162	141
0	747	162.213311595746	142
0	748	162.213311595746	143
0	750	162.772281066882	144
0	751	162.772281066882	145
0	752	163	144
0	754	164	143
0	757	164.489475249475	144
0	758	164.489475249475	145
0	760	164.70274377557	146
0	761	164.70274377557	147
0	762	165	146
0	765	165.34858909841	147
0	766	165.34858909841	148
0	767	166	147
0	770	166.263980250123	148
0	771	166.263980250123	149
0	772	167	148
0	775	167.015877215254	149
0	776	167.015877215254	150
0	778	167.116792216424	151
0	779	167.116792216424	152
0	780	168	151
0	783	168.334703591723	152
0	784	168.334703591723	153
0	786	168.783909773783	154
0	787	168.783909773783	155
0	788	169	154
0	791	169.213369019004	155
0	792	169.213369019004	156
0	794	169.443650940225	157
0	795	169.443650940225	158
0	796	170	157
0	799	170.134604670077	158
0	800	170.134604670077	159
0	802	170.595812309569	160
0	803	170.595812309569	161
0	804	171	160
0	807	171.830630357315	161
0	808	171.830630357315	162
0	809	172	161
0	811	173	160
0	814	173.379743081714	161
0	815	173.379743081714	162
0	816	174	161
0	819	174.856305349091	162
0	820	174.856305349091	163
0	821	175	162
0	823	176	161
0	826	176.108653005453	162
0	827	176.108653005453	163
0	828	177	162
0	831	177.329419155494	163
0	832	177.329419155494	164
0	833	178	163
0	836	178.659308376122	164
0	837	178.659308376122	165
0	839	178.965216936837	166
0	840	178.965216936837	167
0	841	179	166
0	844	179.393753884965	167
0	845	179.393753884965	168
0	846	180	167
0	848	181	166
0	851	181.002636159279	167
0	852	181.002636159279	168
0	853	182	167
0	856	182.17566544665	168
0	857	182.17566544665	169
0	858	183	168
0	861	183.444586612385	169
0	862	183.444586612385	170
0	863	184	169
0	866	184.19325060272	170
0	867	184.19325060272	171
0	869	184.845891430796	172
0	870	184.845891430796	173
0	871	185	172
0	873	186	171
0	876	186.173026914905	172
0	877	186.173026914905	173
0	879	186.260934912461	174
0	880	186.260934912461	175
0	881	187	174
0	884	187.581616763925	175
0	885	187.581616763925	176
0	886	188	175
0	888	189	174
0	891	189.064171732697	175
0	892	189.064171732697	176
0	893	190	175
0	896	190.866809034442	176
0	897	190.866809034442	177
0	898	191	176
0	901	191.571994011293	177
0	902	191.571994011293	178
0	903	192	177
0	906	192.670296055094	178
0	907	192.670296055094	179
0	908	193	178
0	911	193.883378467712	179
0	912	193.883378467712	180
0	913	194	179
0	916	194.99746091159	180
0	917	194.99746091159	181
0	918	195	180
0	920	196	179
0	923	196.403681975598	180
0	924	196.403681975598	181
0	925	197	180
0	927	198	179
0	930	198.004531104706	180
0	931	198.004531104706	181
0	932	199	180
0	935	199.840693317147	181
0	936	199.840693317147	182
0	937	200	181
0	939	201	180
0	942	201.77137716407	181
0	943	201.77137716407	182
0	944	202	181
0	946	203	180
0	949	203.811006532016	181
0	950	203.811006532016	182
0	951	204	181
0	953	205	180
0	956	205.269431821167	181
0	957	205.269431821167	182
0	958	206	181
0	961	206.941020830269	182
0	962	206.941020830269	183
0	963	207	182
0	966	207.426096067476	183
0	967	207.426096067476	184
0	968	208	183
0	971	208.718479386325	184
0	972	208.718479386325	185
0	973	209	184
0	976	209.90493630242	185
0	977	209.90493630242	186
0	978	210	185
0	981	210.682348573906	186
0	982	210.682348573906	187
0	984	210.703881722217	188
0	985	210.703881722217	189
0	986	211	188
0	989	211.923979305972	189
0	990	211.923979305972	190
0	991	212	189
0	993	213	188
0	996	213.874993350775	189
0	997	213.874993350775	190
0	998	214	189
0	1000	215	188
0	1003	215.040755421734	189
0	1004	215.040755421734	190
0	1005	216	189
0	1008	216.044863499604	190
0	1009	216.044863499604	191
0	1011	216.487577629246	192
0	1012	216.487577629246	193
0	1013	217	192
0	1016	217.208907410245	193
0	1017	217.208907410245	194
0	1019	217.795982115576	195
0	1020	217.795982115576	196
0	1021	218	195
0	1024	218.309141947087	196
0	1025	218.309141947087	197
0	1026	219	196
0	1029	219.065027777368	197
0	1030	219.065027777368	198
0	1032	219.474284941451	199
0	1033	219.474284941451	200
0	1034	220	199
0	1037	220.861502772692	200
0	1038	220.861502772692	201
0	1039	221	200
0	1042	221.857614858606	201
0	1043	221.857614858606	202
0	1044	222	201
0	1047	222.767444392578	202
0	1048	222.767444392578	203
0	1049	223	202
0	1051	224	201
0	1054	224.535879627911	202
0	1055	224.535879627911	203
0	1057	224.638734071437	204
0	1058	224.638734071437	205
0	1059	225	204
0	1061	226	203
0	1064	226.13723500411	204
0	1065	226.13723500411	205
0	1067	226.443444763322	206
0	1068	226.443444763322	207
0	1069	227	206
0	1072	227.666152064419	207
0	1073	227.666152064419	208
0	1074	228	207
0	1077	228.266796187622	208
0	1078	228.266796187622	209
0	1079	229	208
0	1082	229.111326137748	209
0	1083	229.111326137748	210
0	1084	230	209
0	1087	230.249592224883	210
0	1088	230.249592224883	211
0	1090	230.753208388752	212
0	1091	230.753208388752	213
0	1092	231	212
0	1094	232	211
0	1096	233	210
0	1099	233.258533546422	211
0	1100	233.258533546422	212
0	1101	234	211
0	1104	234.106332670307	212
0	1105	234.106332670307	213
0	1107	234.683830918997	214
0	1108	234.683830918997	215
0	1109	235	214
0	1112	235.816088037697	215
0	1113	235.816088037697	216
0	1114	236	215
0	1116	237	214
0	1119	237.138812977778	215
0	1120	237.138812977778	216
0	1122	237.93869624982	217
0	1123	237.93869624982	218
0	1124	238	217
0	1127	238.493755807688	218
0	1128	238.493755807688	219
0	1129	239	218
0	1132	239.076773466505	219
0	1133	239.076773466505	220
0	1135	239.416902647234	221
0	1136	239.416902647234	222
0	1137	240	221
0	1140	240.622027683332	222
0	1141	240.622027683332	223
0	1142	241	222
0	1145	241.938343245082	223
0	1146	241.938343245082	224
0	1147	242	223
0	1149	243	222
0	1152	243.319087216375	223
0	1153	243.319087216375	224
0	1155	243.407459182275	225
0	1156	243.407459182275	226
0	1157	244	225
0	1159	245	224
0	1162	245.546659857626	225
0	1163	245.546659857626	226
0	1164	246	225
0	1166	247	224
0	1169	247.321559103356	225
0	1170	247.321559103356	226
0	1171	248	225
0	1174	248.647530745537	226
0	1175	248.647530745537	227
0	1176	249	226
0	1179	249.000366422794	227
0	1180	249.000366422794	228
0	1182	249.489023649772	229
0	1183	249.489023649772	230
0	1184	250	229
0	1187	250.603917210416	230
0	1188	250.603917210416	231
0	1189	251	230
0	1191	252	229
0	1194	252.880212972325	230
0	1195	252.880212972325	231
0	1196	253	230
0	1198	254	229
0	1201	254.672028084909	230
0	1202	254.672028084909	231
0	1203	255	230
0	1206	255.423116739239	231
0	1207	255.423116739239	232
0	1208	256	231
0	1211	256.499412510387	232
0	1212	256.499412510387	233
0	1213	257	232
0	1216	257.46685103453	233
0	1217	257.46685103453	234
0	1218	258	233
0	1220	259	232
0	1223	259.157783903971	233
0	1224	259.157783903971	234
0	1226	259.694289129401	235
0	1227	259.694289129401	236
0	1228	260	235
0	1231	260.801396274065	236
0	1232	260.801396274065	237
0	1233	261	236
0	1236	261.517377375122	237
0	1237	261.517377375122	238
0	1238	262	237
0	1240	263	236
0	1243	263.272872451184	237
0	1244	263.272872451184	238
0	1245	264	237
0	1248	264.721215722494	238
0	1249	264.721215722494	239
0	1250	265	238
0	1253	265.821039463616	239
0	1254	265.821039463616	240
0	1256	265.95810920665	241
0	1257	265.95810920665	242
0	1258	266	241
0	1261	266.540295658979	242
0	1262	266.540295658979	243
0	1263	267	242
0	1265	268	241
0	1268	268.551977734913	242
0	1269	268.551977734913	243
0	1271	268.91131541995	244
0	1272	268.91131541995	245
0	1273	269	244
0	1276	269.934466704651	245
0	1277	269.934466704651	246
0	1278	270	245
0	1280	271	244
0	1283	271.141796009376	245
0	1284	271.141796009376	246
0	1286	271.397860254691	247
0	1287	271.397860254691	248
0	1288	272	247
0	1291	272.3638959063	248
0	1292	272.3638959063	249
0	1294	272.625874268594	250
0	1295	272.625874268594	251
0	1296	273	250
0	1299	273.506606539361	251
0	1300	273.506606539361	252
0	1301	274	251
0	1304	274.383229020906	252
0	1305	274.383229020906	253
0	1306	275	252
0	1309	275.70722011939	253
0	1310	275.70722011939	254
0	1311	276	253
0	1314	276.656497192072	254
0	1315	276.656497192072	255
0	1316	277	254
0	1319	277.143116341581	255
0	1320	277.143116341581	256
0	1322	277.171836195419	257
0	1323	277.171836195419	258
0	1324	278	257
0	1327	278.159384111362	258
0	1328	278.159384111362	259
0	1329	279	258
0	1331	280	257
0	1334	280.719612991651	258
0	1335	280.719612991651	259
0	1337	280.812134194874	260
0	1338	280.812134194874	261
0	1339	281	260
0	1341	282	259
0	1344	282.331080773086	260
0	1345	282.331080773086	261
0	1346	283	260
0	1349	283.312227659213	261
0	1350	283.312227659213	262
0	1352	283.583885070749	263
0	1353	283.583885070749	264
0	1354	284	263
0	1357	284.501150590726	264
0	1358	284.501150590726	265
0	1360	284.567574084	266
0	1361	284.567574084	267
0	1362	285	266
0	1364	286	265
0	1367	286.747338711091	266
0	1368	286.747338711091	267
0	1369	287	266
0	1372	287.683271921197	267
0	1373	287.683271921197	268
0	1374	288	267
0	1377	288.399867147941	268
0	1378	288.399867147941	269
0	1380	288.443203514101	270
0	1381	288.443203514101	271
0	1382	289	270
0	1385	289.187807321217	271
0	1386	289.187807321217	272
0	1387	290	271
0	1389	291	270
0	1392	291.514185665806	271
0	1393	291.514185665806	272
0	1394	292	271
0	1397	292.999450356942	272
0	1398	292.999450356942	273
0	1399	293	272
0	1402	293.683046652533	273
0	1403	293.683046652533	274
0	1404	294	273
0	1406	295	272
0	1409	295.508549013794	273
0	1410	295.508549013794	274
0	1411	296	273
0	1414	296.213095614172	274
0	1415	296.213095614172	275
0	1416	297	274
0	1419	297.815345238592	275
0	1420	297.815345238592	276
0	1421	298	275
0	1424	298.659242129175	276
0	1425	298.659242129175	277
0	1426	299	276
0	1429	299.799427560691	277
0	1430	299.799427560691	278
0	1431	300	277
0	1434	300.367386722106	278
0	1435	300.367386722106	279
0	1437	300.748972526911	280
0	1438	300.748972526911	281
0	1439	301	280
0	1442	301.641668608957	281
0	1443	301.641668608957	282
0	1444	302	281
0	1447	302.928321968399	282
0	1448	302.928321968399	283
0	1449	303	282
0	1452	303.770282993422	283
0	1453	303.770282993422	284
0	1454	304	283
0	1456	305	282
0	1459	305.072893615988	283
0	1460	305.072893615988	284
0	1461	306	283
0	1464	306.603359776948	284
0	1465	306.603359776948	285
0	1466	307	284
0	1469	307.848240341583	285
0	1470	307.848240341583	286
0	1471	308	285
0	1474	308.860009207336	286
0	1475	308.860009207336	287
0	1476	309	286
0	1479	309.068712913222	287
0	1480	309.068712913222	288
0	1482	309.798884377219	289
0	1483	309.798884377219	290
0	1484	310	289
0	1486	311	288
0	1489	311.136726080622	289
0	1490	311.136726080622	290
0	1492	311.642580035921	291
0	1493	311.642580035921	292
0	1494	312	291
0	1497	312.934558181463	292
0	1498	312.934558181463	293
0	1499	313	292
0	1502	313.225723691974	293
0	1503	313.225723691974	294
0	1505	313.522509459938	295
0	1506	313.522509459938	296
0	1507	314	295
0	1509	315	294
0	1512	315.43732948978	295
0	1513	315.43732948978	296
0	1514	316	295
0	1517	316.989697356647	296
0	1518	316.989697356647	297
0	1519	317	296
0	1521	318	295
0	1524	318.014896164266	296
0	1525	318.014896164266	297
0	1526	319	296
0	1528	320	295
0	1531	320.567831197214	296
0	1532	320.567831197214	297
0	1533	321	296
0	1536	321.766287399144	297
0	1537	321.766287399144	298
0	1538	322	297
0	1541	322.61754746266	298
0	1542	322.61754746266	299
0	1543	323	298
0	1546	323.306490819081	299
0	1547	323.306490819081	300
0	1548	324	299
0	1551	324.557378239917	300
0	1552	324.557378239917	301
0	1553	325	300
0	1556	325.046974338792	301
0	1557	325.046974338792	302
0	1559	325.49435622868	303
0	1560	325.49435622868	304
0	1561	326	303
0	1563	327	302
0	1566	327.690801158233	303
0	1567	327.690801158233	304
0	1568	328	303
0	1571	328.506258174037	304
0	1572	328.506258174037	305
0	1573	329	304
0	1575	330	303
0	1578	330.125483330521	304
0	1579	330.125483330521	305
0	1580	331	304
0	1583	331.024747725645	305
0	1584	331.024747725645	306
0	1585	332	305
0	1588	332.614983492614	306
0	1589	332.614983492614	307
0	1590	333	306
0	1592	334	305
0	1595	334.074148097831	306
0	1596	334.074148097831	307
0	1598	334.526126963104	308
0	1599	334.526126963104	309
0	1600	335	308
0	1603	335.44838528892	309
0	1604	335.44838528892	310
0	1605	336	309
0	1608	336.77588584659	310
0	1609	336.77588584659	311
0	1610	337	310
0	1613	337.507006127365	311
0	1614	337.507006127365	312
0	1615	338	311
0	1617	339	310
0	1620	339.84430575535	311
0	1621	339.84430575535	312
0	1622	340	311
0	1624	341	310
0	1627	341.341513264825	311
0	1628	341.341513264825	312
0	1630	341.580928784991	313
0	1631	341.580928784991	314
0	1632	342	313
0	1635	342.831073213675	314
0	1636	342.831073213675	315
0	1637	343	314
0	1639	344	313
0	1642	344.180724087361	314
0	1643	344.180724087361	315
0	1645	344.922432330686	316
0	1646	344.922432330686	317
0	1647	345	316
0	1650	345.625687242486	317
0	1651	345.625687242486	318
0	1652	346	317
0	1655	346.584056293848	318
0	1656	346.584056293848	319
0	1657	347	318
0	1660	347.420827784193	319
0	1661	347.420827784193	320
0	1662	348	319
0	1665	348.440524014271	320
0	1666	348.440524014271	321
0	1667	349	320
0	1670	349.160663419408	321
0	1671	349.160663419408	322
0	1673	349.988800555031	323
0	1674	349.988800555031	324
0	1675	350	323
0	1678	350.267565057395	324
0	1679	350.267565057395	325
0	1680	351	324
0	1683	351.143374169548	325
0	1684	351.143374169548	326
0	1685	352	325
0	1688	352.792253284419	326
0	1689	352.792253284419	327
0	1690	353	326
0	1692	354	325
0	1695	354.31685021867	326
0	1696	354.31685021867	327
0	1697	355	326
0	1700	355.132315217132	327
0	1701	355.132315217132	328
0	1702	356	327
0	1705	356.291560143757	328
0	1706	356.291560143757	329
0	1708	356.858784187843	330
0	1709	356.858784187843	331
0	1710	357	330
0	1713	357.48343682267	331
0	1714	357.48343682267	332
0	1715	358	331
0	1718	358.431732720923	332
0	1719	358.431732720923	333
0	1721	358.993690235646	334
0	1722	358.993690235646	335
0	1723	359	334
0	1726	359.852585174572	335
0	1727	359.852585174572	336
0	1728	360	335
0	1731	360.579576289782	336
0	1732	360.579576289782	337
0	1733	361	336
0	1736	361.177647494715	337
0	1737	361.177647494715	338
0	1738	362	337
0	1741	362.777154585443	338
0	1742	362.777154585443	339
0	1743	363	338
0	1745	364	337
0	1748	364.7486767929	338
0	1749	364.7486767929	339
0	1750	365	338
0	1753	365.506024903885	339
0	1754	365.506024903885	340
0	1756	365.626466579676	341
0	1757	365.626466579676	342
0	1758	366	341
0	1761	366.990611513777	342
0	1762	366.990611513777	343
0	1763	367	342
0	1766	367.685066084292	343
0	1767	367.685066084292	344
0	1768	368	343
0	1770	369	342
0	1773	369.065146600418	343
0	1774	369.065146600418	344
0	1775	370	343
0	1778	370.665896903085	344
0	1779	370.665896903085	345
0	1780	371	344
0	1782	372	343
0	1785	372.359290467201	344
0	1786	372.359290467201	345
0	1788	372.796859782708	346
0	1789	372.796859782708	347
0	1790	373	346
0	1793	373.308604582324	347
0	1794	373.308604582324	348
0	1796	373.84408888083	349
0	1797	373.84408888083	350
0	1798	374	349
0	1801	374.718140542109	350
0	1802	374.718140542109	351
0	1803	375	350
0	1805	376	349
0	1808	376.234237935645	350
0	1809	376.234237935645	351
0	1811	376.991017075887	352
0	1812	376.991017075887	353
0	1813	377	352
0	1816	377.553330841521	353
0	1817	377.553330841521	354
0	1818	378	353
0	1821	378.981592866999	354
0	1822	378.981592866999	355
0	1823	379	354
0	1825	380	353
0	1828	380.017833378138	354
0	1829	380.017833378138	355
0	1830	381	354
0	1833	381.812292188074	355
0	1834	381.812292188074	356
0	1835	382	355
0	1838	382.349219631083	356
0	1839	382.349219631083	357
0	1840	383	356
0	1843	383.641170248366	357
0	1844	383.641170248366	358
0	1846	383.778180519809	359
0	1847	383.778180519809	360
0	1848	384	359
0	1851	384.700452010693	360
0	1852	384.700452010693	361
0	1853	385	360
0	1856	385.84819110863	361
0	1857	385.84819110863	362
0	1858	386	361
0	1861	386.571575333731	362
0	1862	386.571575333731	363
0	1864	386.73089824136	364
0	1865	386.73089824136	365
0	1866	387	364
0	1869	387.457707901263	365
0	1870	387.457707901263	366
0	1871	388	365
0	1874	388.464510638775	366
0	1875	388.464510638775	367
0	1876	389	366
0	1878	390	365
0	1881	390.448330028155	366
0	1882	390.448330028155	367
0	1883	391	366
0	1886	391.717041544143	367
0	1887	391.717041544143	368
0	1888	392	367
0	1891	392.626884151581	368
0	1892	392.626884151581	369
0	1893	393	368
0	1896	393.335109774607	369
0	1897	393.335109774607	370
0	1898	394	369
0	1901	394.251127409074	370
0	1902	394.251127409074	371
0	1903	395	370
0	1906	395.315833705672	371
0	1907	395.315833705672	372
0	1909	395.670842017451	373
0	1910	395.670842017451	374
0	1911	396	373
0	1914	396.065612585458	374
0	1915	396.065612585458	375
0	1916	397	374
0	1919	397.331102537845	375
0	1920	397.331102537845	376
0	1921	398	375
0	1924	398.019673952916	376
0	1925	398.019673952916	377
0	1927	398.967848454798	378
0	1928	398.967848454798	379
0	1929	399	378
0	1931	400	377
0	1934	400.048145541202	378
0	1935	400.048145541202	379
0	1936	401	378
0	1939	401.04183816868	379
0	1940	401.04183816868	380
0	1941	402	379
0	1944	402.188311994553	380
0	1945	402.188311994553	381
0	1946	403	380
0	1948	404	379
0	1951	404.954034453186	380
0	1952	404.954034453186	381
0	1953	405	380
0	1956	405.600373863932	381
0	1957	405.600373863932	382
0	1958	406	381
0	1961	406.762070942944	382
0	1962	406.762070942944	383
0	1963	407	382
0	1966	407.627548364301	383
0	1967	407.627548364301	384
0	1968	408	383
0	1971	408.374337696203	384
0	1972	408.374337696203	385
0	1974	408.84601833706	386
0	1975	408.84601833706	387
0	1976	409	386
0	1979	409.940641450895	387
0	1980	409.940641450895	388
0	1981	410	387
0	1984	410.647338659657	388
0	1985	410.647338659657	389
0	1987	410.720055589615	390
0	1988	410.720055589615	391
0	1989	411	390
0	1992	411.571506752297	391
0	1993	411.571506752297	392
0	1994	412	391
0	1997	412.096101084397	392
0	1998	412.096101084397	393
0	2000	412.398942075481	394
0	2001	412.398942075481	395
0	2002	413	394
0	2005	413.316529538417	395
0	2006	413.316529538417	396
0	2007	414	395
0	2010	414.309452521664	396
0	2011	414.309452521664	397
0	2012	415	396
0	2015	415.225656477443	397
0	2016	415.225656477443	398
0	2017	416	397
0	2020	416.771005115292	398
0	2021	416.771005115292	399
0	2022	417	398
0	2025	417.244552974465	399
0	2026	417.244552974465	400
0	2027	418	399
0	2030	418.441588204214	400
0	2031	418.441588204214	401
0	2032	419	400
0	2035	419.389668408695	401
0	2036	419.389668408695	402
0	2038	419.709052118943	403
0	2039	419.709052118943	404
0	2040	420	403
0	2042	421	402
0	2045	421.302079384844	403
0	2046	421.302079384844	404
0	2047	422	403
0	2050	422.625205022642	404
0	2051	422.625205022642	405
0	2052	423	404
0	2054	424	403
0	2057	424.392128385785	404
0	2058	424.392128385785	405
0	2059	425	404
0	2062	425.44373409942	405
0	2063	425.44373409942	406
0	2065	425.48979975853	407
0	2066	425.48979975853	408
0	2068	425.860874868826	409
0	2069	425.860874868826	410
0	2070	426	409
0	2073	426.640745952413	410
0	2074	426.640745952413	411
0	2075	427	410
0	2077	428	409
0	2080	428.542191863944	410
0	2081	428.542191863944	411
0	2082	429	410
0	2085	429.818072523903	411
0	2086	429.818072523903	412
0	2087	430	411
0	2089	431	410
0	2091	432	409
0	2094	432.310962453834	410
0	2095	432.310962453834	411
0	2096	433	410
0	2099	433.764086649325	411
0	2100	433.764086649325	412
0	2101	434	411