version 3
run MMc-1-20221127-11:38:40-7588
attr configname MMc
attr datetime 20221127-11:38:40
attr datetimef 20221127-113840
attr experiment MMc
attr inifile omnetpp.ini
attr iterationvars "$mean=uniform(0.5s, 1.5s), $dev=0.5*(uniform(0.5s, 1.5s)), $time=1.0, $num=1, $0=45732, $1=35463, $2=67563"
attr iterationvarsd mean=uniform(0.5s,_1.5s)/dev=0.5#2a(uniform(0.5s,_1.5s))/time=1.0/num=1/45732/35463/67563
attr iterationvarsf mean=uniform(0.5s,_1.5s),dev=0.5#2a(uniform(0.5s,_1.5s)),time=1.0,num=1,45732,35463,67563-
attr measurement "$mean=uniform(0.5s, 1.5s), $dev=0.5*(uniform(0.5s, 1.5s)), $time=1.0, $num=1, $0=45732, $1=35463, $2=67563"
attr network MMc
attr processid 7588
attr repetition 1
attr replication #1
attr resultdir results
attr runnumber 1
attr seedset 1
itervar dev "0.5*(uniform(0.5s, 1.5s))"
itervar mean "uniform(0.5s, 1.5s)"
itervar num 1
itervar time 1.0
config description "MMc module"
config network MMc
config MMc.source.interArrivalTime "truncnormal(uniform(0.5s, 1.5s), 0.5*(uniform(0.5s, 1.5s)))"
config MMc.mmc.serviceTime 1.0s
config MMc.mmc.c 1
config MMc.mmc.capacity 10000
config record-eventlog false
config **.scalar-recording true
config **.vector-recording true
config repeat 4
config seed-1-mt 45732
config seed-2-mt 35463
config seed-3-mt 67563
config output-vector-file MMc-1-1.0-results/1.vec
config output-scalar-file MMc-1-1.0-results/1.sca

vector 0 MMc.mmc queueLength:vector ETV
attr interpolationmode none
attr recordingmode vector
attr title "queue length"
vector 1 MMc.mmc util:vector ETV
attr interpolationmode none
attr recordingmode vector
attr title resources
0	0	0	0
0	3	10	1
0	4	11	0
0	10	12.006322486585	1
0	12	12.772927377032	2
0	13	12.772927377032	3
0	14	13.006322486585	2
0	17	13.290690594173	3
0	18	13.290690594173	4
0	20	13.779432022602	5
0	21	13.779432022602	6
0	22	14.006322486585	5
0	24	15.006322486585	4
0	27	15.184215440173	5
0	28	15.184215440173	6
0	30	15.492480081901	7
0	31	15.492480081901	8
0	32	16.006322486585	7
0	35	16.32078411404	8
0	36	16.32078411404	9
0	37	17.006322486585	8
0	40	17.508929051044	9
0	41	17.508929051044	10
0	43	17.871191734381	11
0	44	17.871191734381	12
0	45	18.006322486585	11
0	48	18.596415737477	12
0	49	18.596415737477	13
0	50	19.006322486585	12
0	52	20.006322486585	11
0	55	20.416932562225	12
0	56	20.416932562225	13
0	58	20.778224875822	14
0	59	20.778224875822	15
0	60	21.006322486585	14
0	62	22.006322486585	13
0	65	22.845305892255	14
0	66	22.845305892255	15
0	67	23.006322486585	14
0	70	23.403267751912	15
0	71	23.403267751912	16
0	73	23.798374888521	17
0	74	23.798374888521	18
0	75	24.006322486585	17
0	78	24.12664084495	18
0	79	24.12664084495	19
0	80	25.006322486585	18
0	83	25.766635462181	19
0	84	25.766635462181	20
0	85	26.006322486585	19
0	87	27.006322486585	18
0	90	27.174097601245	19
0	91	27.174097601245	20
0	93	27.322520444156	21
0	94	27.322520444156	22
0	96	27.524362741675	23
0	97	27.524362741675	24
0	98	28.006322486585	23
0	101	28.724090109923	24
0	102	28.724090109923	25
0	103	29.006322486585	24
0	106	29.650010388723	25
0	107	29.650010388723	26
0	109	29.946580727444	27
0	110	29.946580727444	28
0	111	30.006322486585	27
0	113	31.006322486585	26
0	116	31.559295785493	27
0	117	31.559295785493	28
0	118	32.006322486585	27
0	121	32.185563317792	28
0	122	32.185563317792	29
0	123	33.006322486585	28
0	126	33.086088760647	29
0	127	33.086088760647	30
0	129	33.630047626391	31
0	130	33.630047626391	32
0	131	34.006322486585	31
0	134	34.457237963477	32
0	135	34.457237963477	33
0	136	35.006322486585	32
0	139	35.83349231927	33
0	140	35.83349231927	34
0	141	36.006322486585	33
0	144	36.99303570193	34
0	145	36.99303570193	35
0	146	37.006322486585	34
0	148	38.006322486585	33
0	151	38.103426311145	34
0	152	38.103426311145	35
0	154	38.800953781548	36
0	155	38.800953781548	37
0	156	39.006322486585	36
0	158	40.006322486585	35
0	161	40.103312526683	36
0	162	40.103312526683	37
0	163	41.006322486585	36
0	166	41.368441527	37
0	167	41.368441527	38
0	168	42.006322486585	37
0	170	43.006322486585	36
0	173	43.07437109913	37
0	174	43.07437109913	38
0	175	44.006322486585	37
0	178	44.20973606117	38
0	179	44.20973606117	39
0	181	44.607935940136	40
0	182	44.607935940136	41
0	183	45.006322486585	40
0	186	45.676297426197	41
0	187	45.676297426197	42
0	188	46.006322486585	41
0	190	47.006322486585	40
0	193	47.569062469387	41
0	194	47.569062469387	42
0	195	48.006322486585	41
0	198	48.45386663741	42
0	199	48.45386663741	43
0	200	49.006322486585	42
0	203	49.737658318901	43
0	204	49.737658318901	44
0	205	50.006322486585	43
0	208	50.523545214592	44
0	209	50.523545214592	45
0	210	51.006322486585	44
0	212	52.006322486585	43
0	214	53.006322486585	42
0	217	53.23401772624	43
0	218	53.23401772624	44
0	219	54.006322486585	43
0	221	55.006322486585	42
0	224	55.019836118831	43
0	225	55.019836118831	44
0	226	56.006322486585	43
0	228	57.006322486585	42
0	231	57.081286578149	43
0	232	57.081286578149	44
0	233	58.006322486585	43
0	236	58.556143203679	44
0	237	58.556143203679	45
0	238	59.006322486585	44
0	241	59.490519046551	45
0	242	59.490519046551	46
0	243	60.006322486585	45
0	246	60.630603857967	46
0	247	60.630603857967	47
0	248	61.006322486585	46
0	251	61.63857785089	47
0	252	61.63857785089	48
0	253	62.006322486585	47
0	255	63.006322486585	46
0	258	63.12415536919	47
0	259	63.12415536919	48
0	261	63.951343057998	49
0	262	63.951343057998	50
0	263	64.006322486585	49
0	266	64.494741147264	50
0	267	64.494741147264	51
0	268	65.006322486585	50
0	271	65.445332179649	51
0	272	65.445332179649	52
0	273	66.006322486585	51
0	275	67.006322486585	50
0	277	68.006322486585	49
0	280	68.272871546782	50
0	281	68.272871546782	51
0	283	68.933210556268	52
0	284	68.933210556268	53
0	285	69.006322486585	52
0	288	69.844672260955	53
0	289	69.844672260955	54
0	290	70.006322486585	53
0	293	70.568064033423	54
0	294	70.568064033423	55
0	295	71.006322486585	54
0	298	71.561055385498	55
0	299	71.561055385498	56
0	300	72.006322486585	55
0	303	72.13176040029	56
0	304	72.13176040029	57
0	306	72.58533359532	58
0	307	72.58533359532	59
0	308	73.006322486585	58
0	311	73.187729700195	59
0	312	73.187729700195	60
0	313	74.006322486585	59
0	316	74.681205848394	60
0	317	74.681205848394	61
0	318	75.006322486585	60
0	320	76.006322486585	59
0	323	76.043821848813	60
0	324	76.043821848813	61
0	326	76.467762976825	62
0	327	76.467762976825	63
0	328	77.006322486585	62
0	331	77.540049409393	63
0	332	77.540049409393	64
0	334	77.767214727839	65
0	335	77.767214727839	66
0	337	77.959605824068	67
0	338	77.959605824068	68
0	339	78.006322486585	67
0	342	78.390153426951	68
0	343	78.390153426951	69
0	344	79.006322486585	68
0	347	79.283810527468	69
0	348	79.283810527468	70
0	350	79.997115592148	71
0	351	79.997115592148	72
0	352	80.006322486585	71
0	355	80.609033320946	72
0	356	80.609033320946	73
0	357	81.006322486585	72
0	359	82.006322486585	71
0	362	82.194190418068	72
0	363	82.194190418068	73
0	364	83.006322486585	72
0	367	83.316811685507	73
0	368	83.316811685507	74
0	370	83.809407463892	75
0	371	83.809407463892	76
0	372	84.006322486585	75
0	375	84.638952853989	76
0	376	84.638952853989	77
0	377	85.006322486585	76
0	379	86.006322486585	75
0	382	86.084959193799	76
0	383	86.084959193799	77
0	384	87.006322486585	76
0	386	88.006322486585	75
0	389	88.263407429323	76
0	390	88.263407429323	77
0	391	89.006322486585	76
0	394	89.471865714774	77
0	395	89.471865714774	78
0	396	90.006322486585	77
0	399	90.952308485172	78
0	400	90.952308485172	79
0	401	91.006322486585	78
0	403	92.006322486585	77
0	406	92.305169855531	78
0	407	92.305169855531	79
0	408	93.006322486585	78
0	411	93.036273701188	79
0	412	93.036273701188	80
0	413	94.006322486585	79
0	416	94.093409358827	80
0	417	94.093409358827	81
0	419	94.753200017563	82
0	420	94.753200017563	83
0	421	95.006322486585	82
0	423	96.006322486585	81
0	426	96.485632052788	82
0	427	96.485632052788	83
0	428	97.006322486585	82
0	431	97.50245918729	83
0	432	97.50245918729	84
0	434	97.723954889099	85
0	435	97.723954889099	86
0	436	98.006322486585	85
0	439	98.499341524298	86
0	440	98.499341524298	87
0	441	99.006322486585	86
0	444	99.818067641116	87
0	445	99.818067641116	88
0	446	100.006322486585	87
0	449	100.789072232879	88
0	450	100.789072232879	89
0	451	101.006322486585	88
0	454	101.630294221192	89
0	455	101.630294221192	90
0	456	102.006322486585	89
0	458	103.006322486585	88
0	461	103.126438200628	89
0	462	103.126438200628	90
0	463	104.006322486585	89
0	466	104.616441554916	90
0	467	104.616441554916	91
0	468	105.006322486585	90
0	471	105.843103116269	91
0	472	105.843103116269	92
0	473	106.006322486585	91
0	476	106.321650616983	92
0	477	106.321650616983	93
0	478	107.006322486585	92
0	481	107.432292093027	93
0	482	107.432292093027	94
0	484	107.900754095921	95
0	485	107.900754095921	96
0	486	108.006322486585	95
0	488	109.006322486585	94
0	490	110.006322486585	93
0	493	110.389223776748	94
0	494	110.389223776748	95
0	495	111.006322486585	94
0	497	112.006322486585	93
0	500	112.227061385131	94
0	501	112.227061385131	95
0	502	113.006322486585	94
0	505	113.172884382694	95
0	506	113.172884382694	96
0	507	114.006322486585	95
0	510	114.607775123992	96
0	511	114.607775123992	97
0	512	115.006322486585	96
0	514	116.006322486585	95
0	517	116.046807012134	96
0	518	116.046807012134	97
0	519	117.006322486585	96
0	522	117.128838811325	97
0	523	117.128838811325	98
0	524	118.006322486585	97
0	527	118.49111641986	98
0	528	118.49111641986	99
0	529	119.006322486585	98
0	532	119.062990550961	99
0	533	119.062990550961	100
0	534	120.006322486585	99
0	537	120.016891633364	100
0	538	120.016891633364	101
0	540	120.77405615236	102
0	541	120.77405615236	103
0	542	121.006322486585	102
0	545	121.527731599883	103
0	546	121.527731599883	104
0	547	122.006322486585	103
0	550	122.559916553113	104
0	551	122.559916553113	105
0	552	123.006322486585	104
0	555	123.775969045068	105
0	556	123.775969045068	106
0	557	124.006322486585	105
0	559	125.006322486585	104
0	562	125.664795768649	105
0	563	125.664795768649	106
0	564	126.006322486585	105
0	566	127.006322486585	104
0	569	127.751154752387	105
0	570	127.751154752387	106
0	571	128.006322486585	105
0	574	128.42061081973	106
0	575	128.42061081973	107
0	577	128.79651825899	108
0	578	128.79651825899	109
0	579	129.006322486585	108
0	582	129.928134979147	109
0	583	129.928134979147	110
0	584	130.006322486585	109
0	586	131.006322486585	108
0	589	131.096090150189	109
0	590	131.096090150189	110
0	591	132.006322486585	109
0	594	132.192699784411	110
0	595	132.192699784411	111
0	596	133.006322486585	110
0	599	133.554912253661	111
0	600	133.554912253661	112
0	601	134.006322486585	111
0	604	134.116863878471	112
0	605	134.116863878471	113
0	607	134.28456073074	114
0	608	134.28456073074	115
0	609	135.006322486585	114
0	612	135.487380495875	115
0	613	135.487380495875	116
0	614	136.006322486585	115
0	617	136.073222448016	116
0	618	136.073222448016	117
0	619	137.006322486585	116
0	622	137.502102178654	117
0	623	137.502102178654	118
0	624	138.006322486585	117
0	627	138.960391351339	118
0	628	138.960391351339	119
0	629	139.006322486585	118
0	631	140.006322486585	117
0	634	140.651411282471	118
0	635	140.651411282471	119
0	636	141.006322486585	118
0	639	141.577478912218	119
0	640	141.577478912218	120
0	641	142.006322486585	119
0	644	142.597901882674	120
0	645	142.597901882674	121
0	646	143.006322486585	120
0	648	144.006322486585	119
0	651	144.573873452775	120
0	652	144.573873452775	121
0	653	145.006322486585	120
0	655	146.006322486585	119
0	658	146.04243783765	120
0	659	146.04243783765	121
0	660	147.006322486585	120
0	662	148.006322486585	119
0	665	148.639943584154	120
0	666	148.639943584154	121
0	668	148.904958936118	122
0	669	148.904958936118	123
0	670	149.006322486585	122
0	673	149.881745349012	123
0	674	149.881745349012	124
0	675	150.006322486585	123
0	678	150.532746866896	124
0	679	150.532746866896	125
0	681	150.943014303332	126
0	682	150.943014303332	127
0	683	151.006322486585	126
0	686	151.080611594257	127
0	687	151.080611594257	128
0	688	152.006322486585	127
0	691	152.199448578819	128
0	692	152.199448578819	129
0	693	153.006322486585	128
0	696	153.170166874345	129
0	697	153.170166874345	130
0	698	154.006322486585	129
0	701	154.970298495059	130
0	702	154.970298495059	131
0	703	155.006322486585	130
0	706	155.434788809002	131
0	707	155.434788809002	132
0	708	156.006322486585	131
0	711	156.145550316113	132
0	712	156.145550316113	133
0	713	157.006322486585	132
0	716	157.906370814453	133
0	717	157.906370814453	134
0	718	158.006322486585	133
0	720	159.006322486585	132
0	723	159.59498278948	133
0	724	159.59498278948	134
0	725	160.006322486585	133
0	728	160.519180814341	134
0	729	160.519180814341	135
0	730	161.006322486585	134
0	732	162.006322486585	133
0	735	162.09745060962	134
0	736	162.09745060962	135
0	738	162.669484758371	136
0	739	162.669484758371	137
0	740	163.006322486585	136
0	743	163.067242713575	137
0	744	163.067242713575	138
0	745	164.006322486585	137
0	748	164.658439433955	138
0	749	164.658439433955	139
0	750	165.006322486585	138
0	753	165.812519331821	139
0	754	165.812519331821	140
0	755	166.006322486585	139
0	758	166.953763708318	140
0	759	166.953763708318	141
0	760	167.006322486585	140
0	763	167.821625568693	141
0	764	167.821625568693	142
0	765	168.006322486585	141
0	768	168.150437429323	142
0	769	168.150437429323	143
0	770	169.006322486585	142
0	773	169.353190490716	143
0	774	169.353190490716	144
0	776	169.476212056377	145
0	777	169.476212056377	146
0	778	170.006322486585	145
0	781	170.958733370384	146
0	782	170.958733370384	147
0	783	171.006322486585	146
0	786	171.263956566079	147
0	787	171.263956566079	148
0	788	172.006322486585	147
0	791	172.935362048083	148
0	792	172.935362048083	149
0	793	173.006322486585	148
0	796	173.467297730033	149
0	797	173.467297730033	150
0	798	174.006322486585	149
0	801	174.976957723602	150
0	802	174.976957723602	151
0	803	175.006322486585	150
0	806	175.923781092226	151
0	807	175.923781092226	152
0	808	176.006322486585	151
0	811	176.735908924454	152
0	812	176.735908924454	153
0	813	177.006322486585	152
0	816	177.776604610082	153
0	817	177.776604610082	154
0	818	178.006322486585	153
0	820	179.006322486585	152
0	823	179.30948188575	153
0	824	179.30948188575	154
0	825	180.006322486585	153
0	828	180.745115003549	154
0	829	180.745115003549	155
0	830	181.006322486585	154
0	832	182.006322486585	153
0	835	182.214634463137	154
0	836	182.214634463137	155
0	838	182.968788887997	156
0	839	182.968788887997	157
0	840	183.006322486585	156
0	843	183.210487233911	157
0	844	183.210487233911	158
0	845	184.006322486585	157
0	848	184.247966914336	158
0	849	184.247966914336	159
0	851	184.930034245339	160
0	852	184.930034245339	161
0	853	185.006322486585	160
0	856	185.916841361397	161
0	857	185.916841361397	162
0	858	186.006322486585	161
0	860	187.006322486585	160
0	863	187.450028681847	161
0	864	187.450028681847	162
0	865	188.006322486585	161
0	868	188.65674921555	162
0	869	188.65674921555	163
0	870	189.006322486585	162
0	873	189.537044737149	163
0	874	189.537044737149	164
0	875	190.006322486585	163
0	878	190.985377366985	164
0	879	190.985377366985	165
0	880	191.006322486585	164
0	882	192.006322486585	163
0	885	192.095554806683	164
0	886	192.095554806683	165
0	888	192.611723534031	166
0	889	192.611723534031	167
0	891	192.936358141464	168
0	892	192.936358141464	169
0	893	193.006322486585	168
0	896	193.434051152446	169
0	897	193.434051152446	170
0	899	193.975236274013	171
0	900	193.975236274013	172
0	901	194.006322486585	171
0	904	194.817817567704	172
0	905	194.817817567704	173
0	906	195.006322486585	172
0	908	196.006322486585	171
0	911	196.595742615305	172
0	912	196.595742615305	173
0	913	197.006322486585	172
0	916	197.583012439499	173
0	917	197.583012439499	174
0	918	198.006322486585	173
0	921	198.268463360381	174
0	922	198.268463360381	175
0	924	198.967892203233	176
0	925	198.967892203233	177
0	926	199.006322486585	176
0	928	200.006322486585	175
0	931	200.402476430736	176
0	932	200.402476430736	177
0	934	200.87477445469	178
0	935	200.87477445469	179
0	936	201.006322486585	178
0	939	201.242465723251	179
0	940	201.242465723251	180
0	941	202.006322486585	179
0	944	202.606867168314	180
0	945	202.606867168314	181
0	946	203.006322486585	180
0	949	203.461970656202	181
0	950	203.461970656202	182
0	951	204.006322486585	181
0	954	204.897851518838	182
0	955	204.897851518838	183
0	956	205.006322486585	182
0	959	205.474708771503	183
0	960	205.474708771503	184
0	961	206.006322486585	183
0	964	206.965302703705	184
0	965	206.965302703705	185
0	966	207.006322486585	184
0	969	207.447678373469	185
0	970	207.447678373469	186
0	971	208.006322486585	185
0	974	208.409847355189	186
0	975	208.409847355189	187
0	976	209.006322486585	186
0	979	209.33819428167	187
0	980	209.33819428167	188
0	981	210.006322486585	187
0	984	210.356082570242	188
0	985	210.356082570242	189
0	986	211.006322486585	188
0	988	212.006322486585	187
0	991	212.239154287556	188
0	992	212.239154287556	189
0	993	213.006322486585	188
0	996	213.212244265665	189
0	997	213.212244265665	190
0	998	214.006322486585	189
0	1001	214.426872607722	190
0	1002	214.426872607722	191
0	1003	215.006322486585	190
0	1006	215.390789755492	191
0	1007	215.390789755492	192
0	1008	216.006322486585	191
0	1011	216.632278060498	192
0	1012	216.632278060498	193
0	1013	217.006322486585	192
0	1016	217.162079250522	193
0	1017	217.162079250522	194
0	1018	218.006322486585	193
0	1021	218.174073948155	194
0	1022	218.174073948155	195
0	1024	218.93316617241	196
0	1025	218.93316617241	197
0	1026	219.006322486585	196
0	1028	220.006322486585	195
0	1031	220.056814292269	196
0	1032	220.056814292269	197
0	1034	220.665727427028	198
0	1035	220.665727427028	199
0	1037	220.912574044958	200
0	1038	220.912574044958	201
0	1039	221.006322486585	200
0	1041	222.006322486585	199
0	1044	222.025998266926	200
0	1045	222.025998266926	201
0	1047	222.559205083504	202
0	1048	222.559205083504	203
0	1050	222.588474103817	204
0	1051	222.588474103817	205
0	1052	223.006322486585	204
0	1055	223.300592118664	205
0	1056	223.300592118664	206
0	1058	223.989936208399	207
0	1059	223.989936208399	208
0	1060	224.006322486585	207
0	1062	225.006322486585	206
0	1065	225.96547218604	207
0	1066	225.96547218604	208
0	1067	226.006322486585	207
0	1070	226.620604467878	208
0	1071	226.620604467878	209
0	1072	227.006322486585	208
0	1074	228.006322486585	207
0	1077	228.122352507242	208
0	1078	228.122352507242	209
0	1079	229.006322486585	208
0	1081	230.006322486585	207
0	1084	230.410991985192	208
0	1085	230.410991985192	209
0	1086	231.006322486585	208
0	1089	231.915348580552	209
0	1090	231.915348580552	210
0	1091	232.006322486585	209
0	1094	232.220181712851	210
0	1095	232.220181712851	211
0	1096	233.006322486585	210
0	1099	233.272191923346	211
0	1100	233.272191923346	212
0	1102	233.932504866029	213
0	1103	233.932504866029	214
0	1104	234.006322486585	213
0	1107	234.10134869808	214
0	1108	234.10134869808	215
0	1109	235.006322486585	214
0	1112	235.817661150233	215
0	1113	235.817661150233	216
0	1114	236.006322486585	215
0	1117	236.663815957112	216
0	1118	236.663815957112	217
0	1119	237.006322486585	216
0	1121	238.006322486585	215
0	1124	238.952994523558	216
0	1125	238.952994523558	217
0	1126	239.006322486585	216
0	1128	240.006322486585	215
0	1131	240.071898987373	216
0	1132	240.071898987373	217
0	1134	240.802158964081	218
0	1135	240.802158964081	219
0	1136	241.006322486585	218
0	1139	241.201229237721	219
0	1140	241.201229237721	220
0	1141	242.006322486585	219
0	1144	242.716876310672	220
0	1145	242.716876310672	221
0	1146	243.006322486585	220
0	1149	243.047246411536	221
0	1150	243.047246411536	222
0	1151	244.006322486585	221
0	1154	244.274047740242	222
0	1155	244.274047740242	223
0	1156	245.006322486585	222
0	1159	245.936784552651	223
0	1160	245.936784552651	224
0	1161	246.006322486585	223
0	1163	247.006322486585	222
0	1166	247.03125792095	223
0	1167	247.03125792095	224
0	1168	248.006322486585	223
0	1171	248.704329765972	224
0	1172	248.704329765972	225
0	1173	249.006322486585	224
0	1176	249.681675588808	225
0	1177	249.681675588808	226
0	1178	250.006322486585	225
0	1180	251.006322486585	224
0	1183	251.062979014998	225
0	1184	251.062979014998	226
0	1186	251.671048519112	227
0	1187	251.671048519112	228
0	1188	252.006322486585	227
0	1191	252.063966026113	228
0	1192	252.063966026113	229
0	1193	253.006322486585	228
0	1196	253.930938867868	229
0	1197	253.930938867868	230
0	1198	254.006322486585	229
0	1201	254.906179883411	230
0	1202	254.906179883411	231
0	1203	255.006322486585	230
0	1206	255.573041915746	231
0	1207	255.573041915746	232
0	1208	256.006322486585	231
0	1211	256.34036788532	232
0	1212	256.34036788532	233
0	1213	257.006322486585	232
0	1216	257.573575221593	233
0	1217	257.573575221593	234
0	1218	258.006322486585	233
0	1220	259.006322486585	232
0	1223	259.273362531867	233
0	1224	259.273362531867	234
0	1225	260.006322486585	233
0	1228	260.670617232272	234
0	1229	260.670617232272	235
0	1230	261.006322486585	234
0	1233	261.13443320068	235
0	1234	261.13443320068	236
0	1235	262.006322486585	235
0	1238	262.839592191912	236
0	1239	262.839592191912	237
0	1240	263.006322486585	236
0	1243	263.225253374108	237
0	1244	263.225253374108	238
0	1245	264.006322486585	237
0	1248	264.164784912954	238
0	1249	264.164784912954	239
0	1250	265.006322486585	238
0	1253	265.56947663055	239
0	1254	265.56947663055	240
0	1255	266.006322486585	239
0	1258	266.687762594846	240
0	1259	266.687762594846	241
0	1260	267.006322486585	240
0	1262	268.006322486585	239
0	1265	268.067355829846	240
0	1266	268.067355829846	241
0	1268	268.776285664149	242
0	1269	268.776285664149	243
0	1270	269.006322486585	242
0	1273	269.598171060835	243
0	1274	269.598171060835	244
0	1275	270.006322486585	243
0	1278	270.829302514435	244
0	1279	270.829302514435	245
0	1280	271.006322486585	244
0	1283	271.666431663175	245
0	1284	271.666431663175	246
0	1285	272.006322486585	245
0	1287	273.006322486585	244
0	1289	274.006322486585	243
0	1292	274.622139826948	244
0	1293	274.622139826948	245
0	1294	275.006322486585	244
0	1296	276.006322486585	243
0	1299	276.295331616066	244
0	1300	276.295331616066	245
0	1301	277.006322486585	244
0	1304	277.848058360212	245
0	1305	277.848058360212	246
0	1306	278.006322486585	245
0	1309	278.908652042247	246
0	1310	278.908652042247	247
0	1311	279.006322486585	246
0	1314	279.618121584829	247
0	1315	279.618121584829	248
0	1316	280.006322486585	247
0	1319	280.285451168798	248
0	1320	280.285451168798	249
0	1321	281.006322486585	248
0	1323	282.006322486585	247
0	1326	282.082542830814	248
0	1327	282.082542830814	249
0	1328	283.006322486585	248
0	1331	283.816137679801	249
0	1332	283.816137679801	250
0	1333	284.006322486585	249
0	1336	284.806733352769	250
0	1337	284.806733352769	251
0	1338	285.006322486585	250
0	1341	285.825455117351	251
0	1342	285.825455117351	252
0	1343	286.006322486585	251
0	1346	286.43203907001	252
0	1347	286.43203907001	253
0	1349	286.930559212371	254
0	1350	286.930559212371	255
0	1351	287.006322486585	254
0	1354	287.506319305906	255
0	1355	287.506319305906	256
0	1356	288.006322486585	255
0	1359	288.190262664225	256
0	1360	288.190262664225	257
0	1361	289.006322486585	256
0	1364	289.805265388438	257
0	1365	289.805265388438	258
0	1366	290.006322486585	257
0	1368	291.006322486585	256
0	1371	291.061189552383	257
0	1372	291.061189552383	258
0	1373	292.006322486585	257
0	1376	292.572898186406	258
0	1377	292.572898186406	259
0	1378	293.006322486585	258
0	1380	294.006322486585	257
0	1383	294.116077675338	258
0	1384	294.116077675338	259
0	1385	295.006322486585	258
0	1388	295.015973488317	259
0	1389	295.015973488317	260
0	1390	296.006322486585	259
0	1393	296.634434339993	260
0	1394	296.634434339993	261
0	1395	297.006322486585	260
0	1398	297.724405819426	261
0	1399	297.724405819426	262
0	1400	298.006322486585	261
0	1403	298.998315199245	262
0	1404	298.998315199245	263
0	1405	299.006322486585	262
0	1407	300.006322486585	261
0	1410	300.383085961793	262
0	1411	300.383085961793	263
0	1412	301.006322486585	262
0	1415	301.576258730939	263
0	1416	301.576258730939	264
0	1417	302.006322486585	263
0	1419	303.006322486585	262
0	1422	303.318616431914	263
0	1423	303.318616431914	264
0	1424	304.006322486585	263
0	1427	304.516021252766	264
0	1428	304.516021252766	265
0	1430	304.739813492296	266
0	1431	304.739813492296	267
0	1432	305.006322486585	266
0	1435	305.285814065386	267
0	1436	305.285814065386	268
0	1437	306.006322486585	267
0	1440	306.468939123636	268
0	1441	306.468939123636	269
0	1442	307.006322486585	268
0	1445	307.445608315067	269
0	1446	307.445608315067	270
0	1447	308.006322486585	269
0	1450	308.624930369785	270
0	1451	308.624930369785	271
0	1452	309.006322486585	270
0	1455	309.984013632254	271
0	1456	309.984013632254	272
0	1457	310.006322486585	271
0	1460	310.999744211775	272
0	1461	310.999744211775	273
0	1462	311.006322486585	272
0	1465	311.87570335584	273
0	1466	311.87570335584	274
0	1467	312.006322486585	273
0	1469	313.006322486585	272
0	1472	313.583984120022	273
0	1473	313.583984120022	274
0	1474	314.006322486585	273
0	1477	314.868588260535	274
0	1478	314.868588260535	275
0	1479	315.006322486585	274
0	1481	316.006322486585	273
0	1484	316.340952032911	274
0	1485	316.340952032911	275
0	1487	316.833357332394	276
0	1488	316.833357332394	277
0	1489	317.006322486585	276
0	1492	317.318251927961	277
0	1493	317.318251927961	278
0	1494	318.006322486585	277
0	1497	318.252464420803	278
0	1498	318.252464420803	279
0	1500	318.293416607336	280
0	1501	318.293416607336	281
0	1502	319.006322486585	280
0	1505	319.713220209081	281
0	1506	319.713220209081	282
0	1507	320.006322486585	281
0	1510	320.120407289821	282
0	1511	320.120407289821	283
0	1513	320.633057299736	284
0	1514	320.633057299736	285
0	1515	321.006322486585	284
0	1518	321.447546698909	285
0	1519	321.447546698909	286
0	1520	322.006322486585	285
0	1523	322.393956432322	286
0	1524	322.393956432322	287
0	1525	323.006322486585	286
0	1527	324.006322486585	285
0	1530	324.280032039647	286
0	1531	324.280032039647	287
0	1532	325.006322486585	286
0	1535	325.153176329645	287
0	1536	325.153176329645	288
0	1537	326.006322486585	287
0	1540	326.315770218082	288
0	1541	326.315770218082	289
0	1543	326.329200504417	290
0	1544	326.329200504417	291
0	1546	326.602637249965	292
0	1547	326.602637249965	293
0	1549	326.918350846018	294
0	1550	326.918350846018	295
0	1551	327.006322486585	294
0	1553	328.006322486585	293
0	1556	328.527473366357	294
0	1557	328.527473366357	295
0	1558	329.006322486585	294
0	1560	330.006322486585	293
0	1563	330.685945447259	294
0	1564	330.685945447259	295
0	1565	331.006322486585	294
0	1567	332.006322486585	293
0	1570	332.313649207644	294
0	1571	332.313649207644	295
0	1573	332.827161984524	296
0	1574	332.827161984524	297
0	1575	333.006322486585	296
0	1577	334.006322486585	295
0	1580	334.543046221711	296
0	1581	334.543046221711	297
0	1582	335.006322486585	296
0	1585	335.861499776147	297
0	1586	335.861499776147	298
0	1587	336.006322486585	297
0	1590	336.798017631457	298
0	1591	336.798017631457	299
0	1592	337.006322486585	298
0	1595	337.769170626668	299
0	1596	337.769170626668	300
0	1597	338.006322486585	299
0	1600	338.8366055542	300
0	1601	338.8366055542	301
0	1603	338.99603401862	302
0	1604	338.99603401862	303
0	1605	339.006322486585	302
0	1607	340.006322486585	301
0	1610	340.076191541808	302
0	1611	340.076191541808	303
0	1613	340.922149949507	304
0	1614	340.922149949507	305
0	1615	341.006322486585	304
0	1618	341.603649974807	305
0	1619	341.603649974807	306
0	1620	342.006322486585	305
0	1623	342.723102478007	306
0	1624	342.723102478007	307
0	1625	343.006322486585	306
0	1627	344.006322486585	305
0	1630	344.06607316783	306
0	1631	344.06607316783	307
0	1632	345.006322486585	306
0	1635	345.951123477749	307
0	1636	345.951123477749	308
0	1637	346.006322486585	307
0	1639	347.006322486585	306
0	1642	347.180989923439	307
0	1643	347.180989923439	308
0	1644	348.006322486585	307
0	1647	348.287092276546	308
0	1648	348.287092276546	309
0	1650	348.641538036103	310
0	1651	348.641538036103	311
0	1653	348.833949989562	312
0	1654	348.833949989562	313
0	1655	349.006322486585	312
0	1657	350.006322486585	311
0	1660	350.051617698062	312
0	1661	350.051617698062	313
0	1662	351.006322486585	312
0	1665	351.245534553256	313
0	1666	351.245534553256	314
0	1667	352.006322486585	313
0	1670	352.740732209346	314
0	1671	352.740732209346	315
0	1672	353.006322486585	314
0	1675	353.950409158315	315
0	1676	353.950409158315	316
0	1677	354.006322486585	315
0	1679	355.006322486585	314
0	1682	355.10171594936	315
0	1683	355.10171594936	316
0	1684	356.006322486585	315
0	1686	357.006322486585	314
0	1688	358.006322486585	313
0	1691	358.139820306864	314
0	1692	358.139820306864	315
0	1694	358.951395626447	316
0	1695	358.951395626447	317
0	1696	359.006322486585	316
0	1698	360.006322486585	315
0	1701	360.484909469178	316
0	1702	360.484909469178	317
0	1704	360.922336319721	318
0	1705	360.922336319721	319
0	1706	361.006322486585	318
0	1708	362.006322486585	317
0	1711	362.160871333164	318
0	1712	362.160871333164	319
0	1713	363.006322486585	318
0	1716	363.386333875971	319
0	1717	363.386333875971	320
0	1719	363.959951724001	321
0	1720	363.959951724001	322
0	1721	364.006322486585	321
0	1723	365.006322486585	320
0	1726	365.416650032093	321
0	1727	365.416650032093	322
0	1729	365.705051725086	323
0	1730	365.705051725086	324
0	1731	366.006322486585	323
0	1734	366.659892883124	324
0	1735	366.659892883124	325
0	1736	367.006322486585	324
0	1739	367.686815284723	325
0	1740	367.686815284723	326
0	1741	368.006322486585	325
0	1743	369.006322486585	324
0	1746	369.220166456596	325
0	1747	369.220166456596	326
0	1748	370.006322486585	325
0	1751	370.144589893655	326
0	1752	370.144589893655	327
0	1753	371.006322486585	326
0	1756	371.675749601639	327
0	1757	371.675749601639	328
0	1758	372.006322486585	327
0	1761	372.208799211505	328
0	1762	372.208799211505	329
0	1764	372.708598296061	330
0	1765	372.708598296061	331
0	1766	373.006322486585	330
0	1769	373.336397640118	331
0	1770	373.336397640118	332
0	1771	374.006322486585	331
0	1774	374.406910026344	332
0	1775	374.406910026344	333
0	1777	374.869027641838	334
0	1778	374.869027641838	335
0	1779	375.006322486585	334