version 3
run MMc-2-20221127-11:38:40-7588
attr configname MMc
attr datetime 20221127-11:38:40
attr datetimef 20221127-113840
attr experiment MMc
attr inifile omnetpp.ini
attr iterationvars "$mean=uniform(0.5s, 1.5s), $dev=0.5*(uniform(0.5s, 1.5s)), $time=1.0, $num=1, $0=47853, $1=24674, $2=96433"
attr iterationvarsd mean=uniform(0.5s,_1.5s)/dev=0.5#2a(uniform(0.5s,_1.5s))/time=1.0/num=1/47853/24674/96433
attr iterationvarsf mean=uniform(0.5s,_1.5s),dev=0.5#2a(uniform(0.5s,_1.5s)),time=1.0,num=1,47853,24674,96433-
attr measurement "$mean=uniform(0.5s, 1.5s), $dev=0.5*(uniform(0.5s, 1.5s)), $time=1.0, $num=1, $0=47853, $1=24674, $2=96433"
attr network MMc
attr processid 7588
attr repetition 2
attr replication #2
attr resultdir results
attr runnumber 2
attr seedset 2
itervar dev "0.5*(uniform(0.5s, 1.5s))"
itervar mean "uniform(0.5s, 1.5s)"
itervar num 1
itervar time 1.0
config description "MMc module"
config network MMc
config MMc.source.interArrivalTime "truncnormal(uniform(0.5s, 1.5s), 0.5*(uniform(0.5s, 1.5s)))"
config MMc.mmc.serviceTime 1.0s
config MMc.mmc.c 1
config MMc.mmc.capacity 10000
config record-eventlog false
config **.scalar-recording true
config **.vector-recording true
config repeat 4
config seed-1-mt 47853
config seed-2-mt 24674
config seed-3-mt 96433
config output-vector-file MMc-1-1.0-results/2.vec
config output-scalar-file MMc-1-1.0-results/2.sca

vector 0 MMc.mmc queueLength:vector ETV
attr interpolationmode none
attr recordingmode vector
attr title "queue length"
vector 1 MMc.mmc util:vector ETV
attr interpolationmode none
attr recordingmode vector
attr title resources
0	0	0	0
0	3	10	1
0	4	11	0
0	7	11.007356147034	1
0	8	11.007356147034	2
0	10	11.286675818619	3
0	11	11.286675818619	4
0	12	12	3
0	15	12.414648100702	4
0	16	12.414648100702	5
0	17	13	4
0	20	13.726737247874	5
0	21	13.726737247874	6
0	22	14	5
0	25	14.265626157555	6
0	26	14.265626157555	7
0	27	15	6
0	30	15.056297621009	7
0	31	15.056297621009	8
0	33	15.178410279195	9
0	34	15.178410279195	10
0	36	15.805751539065	11
0	37	15.805751539065	12
0	38	16	11
0	41	16.649625473114	12
0	42	16.649625473114	13
0	43	17	12
0	45	18	11
0	48	18.131593367052	12
0	49	18.131593367052	13
0	50	19	12
0	53	19.102324272124	13
0	54	19.102324272124	14
0	55	20	13
0	58	20.088188366261	14
0	59	20.088188366261	15
0	61	20.101723802015	16
0	62	20.101723802015	17
0	64	20.846563353052	18
0	65	20.846563353052	19
0	66	21	18
0	69	21.813630514751	19
0	70	21.813630514751	20
0	71	22	19
0	74	22.495871254232	20
0	75	22.495871254232	21
0	76	23	20
0	79	23.813593941622	21
0	80	23.813593941622	22
0	81	24	21
0	84	24.38267186134	22
0	85	24.38267186134	23
0	86	25	22
0	88	26	21
0	91	26.394238586096	22
0	92	26.394238586096	23
0	93	27	22
0	96	27.358433267979	23
0	97	27.358433267979	24
0	98	28	23
0	101	28.944346112624	24
0	102	28.944346112624	25
0	103	29	24
0	105	30	23
0	108	30.061586831688	24
0	109	30.061586831688	25
0	110	31	24
0	113	31.274306906821	25
0	114	31.274306906821	26
0	116	31.487125296712	27
0	117	31.487125296712	28
0	118	32	27
0	121	32.808957868797	28
0	122	32.808957868797	29
0	123	33	28
0	125	34	27
0	128	34.110796373482	28
0	129	34.110796373482	29
0	130	35	28
0	133	35.099534555218	29
0	134	35.099534555218	30
0	136	35.19982262216	31
0	137	35.19982262216	32
0	138	36	31
0	140	37	30
0	143	37.832592652891	31
0	144	37.832592652891	32
0	145	38	31
0	147	39	30
0	150	39.036025526984	31
0	151	39.036025526984	32
0	153	39.118508448443	33
0	154	39.118508448443	34
0	156	39.244189032865	35
0	157	39.244189032865	36
0	158	40	35
0	161	40.297193626924	36
0	162	40.297193626924	37
0	164	40.348957072285	38
0	165	40.348957072285	39
0	166	41	38
0	169	41.740874267447	39
0	170	41.740874267447	40
0	171	42	39
0	174	42.198792688734	40
0	175	42.198792688734	41
0	176	43	40
0	179	43.841609935255	41
0	180	43.841609935255	42
0	181	44	41
0	183	45	40
0	186	45.045112294693	41
0	187	45.045112294693	42
0	189	45.734593470459	43
0	190	45.734593470459	44
0	191	46	43
0	194	46.915176304218	44
0	195	46.915176304218	45
0	196	47	44
0	199	47.487599769808	45
0	200	47.487599769808	46
0	201	48	45
0	204	48.82270093316	46
0	205	48.82270093316	47
0	206	49	46
0	209	49.280899764037	47
0	210	49.280899764037	48
0	211	50	47
0	214	50.602201993038	48
0	215	50.602201993038	49
0	216	51	48
0	219	51.286641641794	49
0	220	51.286641641794	50
0	221	52	49
0	224	52.876720235655	50
0	225	52.876720235655	51
0	226	53	50
0	229	53.866113170032	51
0	230	53.866113170032	52
0	231	54	51
0	233	55	50
0	236	55.191116014246	51
0	237	55.191116014246	52
0	238	56	51
0	241	56.906694420816	52
0	242	56.906694420816	53
0	243	57	52
0	246	57.899490858875	53
0	247	57.899490858875	54
0	248	58	53
0	251	58.646195012824	54
0	252	58.646195012824	55
0	253	59	54
0	256	59.687267510584	55
0	257	59.687267510584	56
0	258	60	55
0	261	60.690004584233	56
0	262	60.690004584233	57
0	263	61	56
0	266	61.218426918103	57
0	267	61.218426918103	58
0	268	62	57
0	270	63	56
0	273	63.376504414918	57
0	274	63.376504414918	58
0	275	64	57
0	277	65	56
0	280	65.096852366702	57
0	281	65.096852366702	58
0	282	66	57
0	285	66.150879304988	58
0	286	66.150879304988	59
0	287	67	58
0	290	67.502709731915	59
0	291	67.502709731915	60
0	292	68	59
0	295	68.333688170993	60
0	296	68.333688170993	61
0	297	69	60
0	300	69.262247021028	61
0	301	69.262247021028	62
0	303	69.558407665415	63
0	304	69.558407665415	64
0	305	70	63
0	308	70.2944374654	64
0	309	70.2944374654	65
0	310	71	64
0	313	71.098673518236	65
0	314	71.098673518236	66
0	316	71.677400569855	67
0	317	71.677400569855	68
0	318	72	67
0	321	72.394940384012	68
0	322	72.394940384012	69
0	323	73	68
0	326	73.046849778761	69
0	327	73.046849778761	70
0	328	74	69
0	331	74.245339341833	70
0	332	74.245339341833	71
0	333	75	70
0	335	76	69
0	338	76.299470435427	70
0	339	76.299470435427	71
0	341	76.662164630919	72
0	342	76.662164630919	73
0	343	77	72
0	346	77.843127844464	73
0	347	77.843127844464	74
0	348	78	73
0	350	79	72
0	353	79.126601109376	73
0	354	79.126601109376	74
0	355	80	73
0	358	80.08159977557	74
0	359	80.08159977557	75
0	360	81	74
0	363	81.418556308478	75
0	364	81.418556308478	76
0	365	82	75
0	368	82.959446518585	76
0	369	82.959446518585	77
0	370	83	76
0	373	83.606049065145	77
0	374	83.606049065145	78
0	375	84	77
0	378	84.966402897923	78
0	379	84.966402897923	79
0	380	85	78
0	383	85.723621979655	79
0	384	85.723621979655	80
0	385	86	79
0	388	86.694375029416	80
0	389	86.694375029416	81
0	390	87	80
0	392	88	79
0	395	88.172649864197	80
0	396	88.172649864197	81
0	397	89	80
0	400	89.958788802939	81
0	401	89.958788802939	82
0	402	90	81
0	405	90.748267530203	82
0	406	90.748267530203	83
0	407	91	82
0	410	91.335635976236	83
0	411	91.335635976236	84
0	412	92	83
0	415	92.013978734657	84
0	416	92.013978734657	85
0	418	92.679512717825	86
0	419	92.679512717825	87
0	420	93	86
0	423	93.367714928836	87
0	424	93.367714928836	88
0	425	94	87
0	428	94.812849558974	88
0	429	94.812849558974	89
0	430	95	88
0	432	96	87
0	435	96.84503564291	88
0	436	96.84503564291	89
0	437	97	88
0	440	97.920342838413	89
0	441	97.920342838413	90
0	442	98	89
0	445	98.453358102911	90
0	446	98.453358102911	91
0	447	99	90
0	449	100	89
0	452	100.481212035297	90
0	453	100.481212035297	91
0	454	101	90
0	457	101.014148573078	91
0	458	101.014148573078	92
0	460	101.999776477926	93
0	461	101.999776477926	94
0	462	102	93
0	465	102.337410216984	94
0	466	102.337410216984	95
0	467	103	94
0	469	104	93
0	472	104.036107213865	94
0	473	104.036107213865	95
0	475	104.54194195589	96
0	476	104.54194195589	97
0	477	105	96
0	479	106	95
0	482	106.059072660016	96
0	483	106.059072660016	97
0	484	107	96
0	487	107.937371302119	97
0	488	107.937371302119	98
0	489	108	97
0	491	109	96
0	494	109.449424726923	97
0	495	109.449424726923	98
0	496	110	97
0	499	110.112924822472	98
0	500	110.112924822472	99
0	502	110.502554874446	100
0	503	110.502554874446	101
0	504	111	100
0	506	112	99
0	509	112.021753417155	100
0	510	112.021753417155	101
0	512	112.894026489885	102
0	513	112.894026489885	103
0	514	113	102
0	517	113.645133036976	103
0	518	113.645133036976	104
0	519	114	103
0	522	114.661657606729	104
0	523	114.661657606729	105
0	524	115	104
0	527	115.459276032377	105
0	528	115.459276032377	106
0	529	116	105
0	532	116.63011162303	106
0	533	116.63011162303	107
0	534	117	106
0	536	118	105
0	539	118.204187372899	106
0	540	118.204187372899	107
0	541	119	106
0	544	119.549681430643	107
0	545	119.549681430643	108
0	546	120	107
0	549	120.813841485555	108
0	550	120.813841485555	109
0	551	121	108
0	554	121.479255659337	109
0	555	121.479255659337	110
0	556	122	109
0	559	122.434007557359	110
0	560	122.434007557359	111
0	561	123	110
0	563	124	109
0	566	124.28442562008	110
0	567	124.28442562008	111
0	568	125	110
0	570	126	109
0	573	126.731238795817	110
0	574	126.731238795817	111
0	575	127	110
0	578	127.299356013567	111
0	579	127.299356013567	112
0	580	128	111
0	583	128.579522858047	112
0	584	128.579522858047	113
0	585	129	112
0	587	130	111
0	590	130.479866755836	112
0	591	130.479866755836	113
0	592	131	112
0	595	131.843209715683	113
0	596	131.843209715683	114
0	597	132	113
0	599	133	112
0	602	133.00683534704	113
0	603	133.00683534704	114
0	604	134	113
0	607	134.276466081251	114
0	608	134.276466081251	115
0	610	134.660606206622	116
0	611	134.660606206622	117
0	612	135	116
0	614	136	115
0	617	136.213251526433	116
0	618	136.213251526433	117
0	620	136.48757215487	118
0	621	136.48757215487	119
0	622	137	118
0	625	137.087277330221	119
0	626	137.087277330221	120
0	628	137.802951209106	121
0	629	137.802951209106	122
0	630	138	121
0	633	138.80357464115	122
0	634	138.80357464115	123
0	635	139	122
0	638	139.493706754612	123
0	639	139.493706754612	124
0	641	139.859669441656	125
0	642	139.859669441656	126
0	643	140	125
0	645	141	124
0	648	141.156754038465	125
0	649	141.156754038465	126
0	650	142	125
0	653	142.243764641542	126
0	654	142.243764641542	127
0	656	142.369937971595	128
0	657	142.369937971595	129
0	658	143	128
0	660	144	127
0	663	144.30743374464	128
0	664	144.30743374464	129
0	665	145	128
0	668	145.892167543279	129
0	669	145.892167543279	130
0	670	146	129
0	673	146.421645703844	130
0	674	146.421645703844	131
0	675	147	130
0	678	147.322344217362	131
0	679	147.322344217362	132
0	680	148	131
0	683	148.05408490511	132
0	684	148.05408490511	133
0	685	149	132
0	688	149.879074771441	133
0	689	149.879074771441	134
0	690	150	133
0	693	150.385356491331	134
0	694	150.385356491331	135
0	695	151	134
0	698	151.63624861957	135
0	699	151.63624861957	136
0	700	152	135
0	702	153	134
0	705	153.817684949822	135
0	706	153.817684949822	136
0	707	154	135
0	710	154.88090337018	136
0	711	154.88090337018	137
0	712	155	136
0	715	155.582914812515	137
0	716	155.582914812515	138
0	717	156	137
0	719	157	136
0	722	157.038868545721	137
0	723	157.038868545721	138
0	724	158	137
0	727	158.259715803795	138
0	728	158.259715803795	139
0	729	159	138
0	732	159.150253103133	139
0	733	159.150253103133	140
0	734	160	139
0	737	160.302964476645	140
0	738	160.302964476645	141
0	739	161	140
0	742	161.445285545961	141
0	743	161.445285545961	142
0	745	161.826406521014	143
0	746	161.826406521014	144
0	747	162	143
0	750	162.134395216989	144
0	751	162.134395216989	145
0	752	163	144
0	755	163.872508276363	145
0	756	163.872508276363	146
0	757	164	145
0	759	165	144
0	762	165.234331362126	145
0	763	165.234331362126	146
0	764	166	145
0	766	167	144
0	769	167.405098918962	145
0	770	167.405098918962	146
0	771	168	145
0	774	168.407887239298	146
0	775	168.407887239298	147
0	776	169	146
0	779	169.25841572001	147
0	780	169.25841572001	148
0	781	170	147
0	784	170.561230032794	148
0	785	170.561230032794	149
0	786	171	148
0	788	172	147
0	791	172.218159485062	148
0	792	172.218159485062	149
0	793	173	148
0	796	173.081978028175	149
0	797	173.081978028175	150
0	799	173.124664927912	151
0	800	173.124664927912	152
0	801	174	151
0	804	174.439250798525	152
0	805	174.439250798525	153
0	807	174.633144500983	154
0	808	174.633144500983	155
0	809	175	154
0	812	175.005652211036	155
0	813	175.005652211036	156
0	815	175.844499650428	157
0	816	175.844499650428	158
0	817	176	157
0	820	176.44439293507	158
0	821	176.44439293507	159
0	822	177	158
0	825	177.551099638214	159
0	826	177.551099638214	160
0	827	178	159
0	830	178.787732128265	160
0	831	178.787732128265	161
0	832	179	160
0	835	179.347931382251	161
0	836	179.347931382251	162
0	837	180	161
0	840	180.289022114864	162
0	841	180.289022114864	163
0	842	181	162
0	845	181.225396964744	163
0	846	181.225396964744	164
0	848	181.257903893157	165
0	849	181.257903893157	166
0	850	182	165
0	853	182.305701842339	166
0	854	182.305701842339	167
0	855	183	166
0	857	184	165
0	860	184.348920196263	166
0	861	184.348920196263	167
0	862	185	166
0	865	185.207573054033	167
0	866	185.207573054033	168
0	867	186	167
0	869	187	166
0	872	187.106396508874	167
0	873	187.106396508874	168
0	874	188	167
0	877	188.910576698966	168
0	878	188.910576698966	169
0	879	189	168
0	881	190	167
0	884	190.334097848086	168
0	885	190.334097848086	169
0	886	191	168
0	888	192	167
0	891	192.32653058498	168
0	892	192.32653058498	169
0	894	192.761017576277	170
0	895	192.761017576277	171
0	896	193	170
0	899	193.429712313921	171
0	900	193.429712313921	172
0	901	194	171
0	904	194.486597125219	172
0	905	194.486597125219	173
0	906	195	172
0	909	195.826982511826	173
0	910	195.826982511826	174
0	911	196	173
0	913	197	172
0	916	197.730102860736	173
0	917	197.730102860736	174
0	918	198	173
0	920	199	172
0	923	199.321653203108	173
0	924	199.321653203108	174
0	926	199.599966252209	175
0	927	199.599966252209	176
0	928	200	175
0	931	200.695006645529	176
0	932	200.695006645529	177
0	933	201	176
0	936	201.427215590266	177
0	937	201.427215590266	178
0	938	202	177
0	941	202.355978848065	178
0	942	202.355978848065	179
0	944	202.8177227437	180
0	945	202.8177227437	181
0	946	203	180
0	948	204	179
0	951	204.015007572934	180
0	952	204.015007572934	181
0	954	204.778725952697	182
0	955	204.778725952697	183
0	956	205	182
0	959	205.111138627465	183
0	960	205.111138627465	184
0	961	206	183
0	964	206.06646718886	184
0	965	206.06646718886	185
0	966	207	184
0	969	207.581456449338	185
0	970	207.581456449338	186
0	971	208	185
0	974	208.647425743868	186
0	975	208.647425743868	187
0	977	208.890319516228	188
0	978	208.890319516228	189
0	979	209	188
0	982	209.695659087077	189
0	983	209.695659087077	190
0	984	210	189
0	987	210.289963917924	190
0	988	210.289963917924	191
0	990	210.889586593626	192
0	991	210.889586593626	193
0	992	211	192
0	995	211.870597942846	193
0	996	211.870597942846	194
0	997	212	193
0	999	213	192
0	1002	213.209513282334	193
0	1003	213.209513282334	194
0	1004	214	193
0	1007	214.388831726133	194
0	1008	214.388831726133	195
0	1009	215	194
0	1012	215.825182729076	195
0	1013	215.825182729076	196
0	1014	216	195
0	1017	216.730357338522	196
0	1018	216.730357338522	197
0	1019	217	196
0	1022	217.494452266473	197
0	1023	217.494452266473	198
0	1024	218	197
0	1026	219	196
0	1029	219.269153568773	197
0	1030	219.269153568773	198
0	1031	220	197
0	1033	221	196
0	1036	221.171330351064	197
0	1037	221.171330351064	198
0	1038	222	197
0	1041	222.538230153148	198
0	1042	222.538230153148	199
0	1043	223	198
0	1046	223.235841744547	199
0	1047	223.235841744547	200
0	1048	224	199
0	1051	224.249232620044	200
0	1052	224.249232620044	201
0	1053	225	200
0	1056	225.946768765549	201
0	1057	225.946768765549	202
0	1058	226	201
0	1060	227	200
0	1063	227.647001393932	201
0	1064	227.647001393932	202
0	1065	228	201
0	1068	228.10593427894	202
0	1069	228.10593427894	203
0	1070	229	202
0	1073	229.323796953854	203
0	1074	229.323796953854	204
0	1075	230	203
0	1078	230.682393423648	204
0	1079	230.682393423648	205
0	1080	231	204
0	1082	232	203
0	1085	232.773418964969	204
0	1086	232.773418964969	205
0	1087	233	204
0	1090	233.960636080193	205
0	1091	233.960636080193	206
0	1092	234	205
0	1095	234.619316827101	206
0	1096	234.619316827101	207
0	1097	235	206
0	1099	236	205
0	1102	236.068907749391	206
0	1103	236.068907749391	207
0	1104	237	206
0	1107	237.331265584495	207
0	1108	237.331265584495	208
0	1109	238	207
0	1112	238.066010784812	208
0	1113	238.066010784812	209
0	1114	239	208
0	1117	239.271156566811	209
0	1118	239.271156566811	210
0	1119	240	209
0	1122	240.077250696906	210
0	1123	240.077250696906	211
0	1124	241	210
0	1127	241.543667421469	211
0	1128	241.543667421469	212
0	1129	242	211
0	1132	242.879401030665	212
0	1133	242.879401030665	213
0	1134	243	212
0	1137	243.131119224076	213
0	1138	243.131119224076	214
0	1139	244	213
0	1142	244.233132063294	214
0	1143	244.233132063294	215
0	1144	245	214
0	1147	245.333732363688	215
0	1148	245.333732363688	216
0	1149	246	215
0	1152	246.729556017197	216
0	1153	246.729556017197	217
0	1154	247	216
0	1157	247.01471302359	217
0	1158	247.01471302359	218
0	1160	247.609446773058	219
0	1161	247.609446773058	220
0	1162	248	219
0	1165	248.895065930161	220
0	1166	248.895065930161	221
0	1167	249	220
0	1170	249.813753272341	221
0	1171	249.813753272341	222
0	1172	250	221
0	1174	251	220
0	1177	251.261190939242	221
0	1178	251.261190939242	222
0	1179	252	221
0	1182	252.434169013007	222
0	1183	252.434169013007	223
0	1184	253	222
0	1186	254	221
0	1188	255	220
0	1191	255.123350434877	221
0	1192	255.123350434877	222
0	1193	256	221
0	1196	256.819119339939	222
0	1197	256.819119339939	223
0	1198	257	222
0	1201	257.964173009132	223
0	1202	257.964173009132	224
0	1203	258	223
0	1205	259	222
0	1208	259.062064261839	223
0	1209	259.062064261839	224
0	1211	259.862257912098	225
0	1212	259.862257912098	226
0	1213	260	225
0	1215	261	224
0	1218	261.144824824666	225
0	1219	261.144824824666	226
0	1220	262	225
0	1222	263	224
0	1225	263.036430844167	225
0	1226	263.036430844167	226
0	1228	263.583490351996	227
0	1229	263.583490351996	228
0	1231	263.719128515274	229
0	1232	263.719128515274	230
0	1233	264	229
0	1236	264.450893785909	230
0	1237	264.450893785909	231
0	1238	265	230
0	1240	266	229
0	1243	266.013514205988	230
0	1244	266.013514205988	231
0	1246	266.979733370217	232
0	1247	266.979733370217	233
0	1248	267	232
0	1251	267.99579754901	233
0	1252	267.99579754901	234
0	1253	268	233
0	1256	268.506201309418	234
0	1257	268.506201309418	235
0	1258	269	234
0	1261	269.457827424556	235
0	1262	269.457827424556	236
0	1263	270	235
0	1265	271	234
0	1268	271.079731930245	235
0	1269	271.079731930245	236
0	1270	272	235
0	1273	272.250138295922	236
0	1274	272.250138295922	237
0	1275	273	236
0	1278	273.296009575029	237
0	1279	273.296009575029	238
0	1280	274	237
0	1283	274.44946899835	238
0	1284	274.44946899835	239
0	1285	275	238
0	1288	275.669676992457	239
0	1289	275.669676992457	240
0	1290	276	239
0	1293	276.903128529914	240
0	1294	276.903128529914	241
0	1295	277	240
0	1298	277.907871113594	241
0	1299	277.907871113594	242
0	1300	278	241
0	1303	278.589397560415	242
0	1304	278.589397560415	243
0	1305	279	242
0	1308	279.400423707124	243
0	1309	279.400423707124	244
0	1311	279.430081957082	245
0	1312	279.430081957082	246
0	1314	279.895247542118	247
0	1315	279.895247542118	248
0	1316	280	247
0	1319	280.596797195268	248
0	1320	280.596797195268	249
0	1321	281	248
0	1323	282	247
0	1326	282.755817894732	248
0	1327	282.755817894732	249
0	1328	283	248
0	1331	283.652272331387	249
0	1332	283.652272331387	250
0	1333	284	249
0	1336	284.66540137137	250
0	1337	284.66540137137	251
0	1338	285	250
0	1341	285.65778267307	251
0	1342	285.65778267307	252
0	1343	286	251
0	1346	286.40912307742	252
0	1347	286.40912307742	253
0	1348	287	252
0	1351	287.003859280099	253
0	1352	287.003859280099	254
0	1354	287.093639253972	255
0	1355	287.093639253972	256
0	1356	288	255
0	1358	289	254
0	1361	289.147395448068	255
0	1362	289.147395448068	256
0	1364	289.721770033582	257
0	1365	289.721770033582	258
0	1366	290	257
0	1369	290.701920980223	258
0	1370	290.701920980223	259
0	1371	291	258
0	1374	291.713407745707	259
0	1375	291.713407745707	260
0	1376	292	259
0	1379	292.036853427294	260
0	1380	292.036853427294	261
0	1382	292.823067036607	262
0	1383	292.823067036607	263
0	1384	293	262
0	1386	294	261
0	1389	294.051470706584	262
0	1390	294.051470706584	263
0	1392	294.634863207	264
0	1393	294.634863207	265
0	1394	295	264
0	1397	295.249056448268	265
0	1398	295.249056448268	266
0	1399	296	265
0	1402	296.134217041741	266
0	1403	296.134217041741	267
0	1404	297	266
0	1407	297.121051216128	267
0	1408	297.121051216128	268
0	1409	298	267
0	1412	298.434436589629	268
0	1413	298.434436589629	269
0	1414	299	268
0	1417	299.191221733171	269
0	1418	299.191221733171	270
0	1419	300	269
0	1422	300.075817357516	270
0	1423	300.075817357516	271
0	1424	301	270
0	1427	301.240747307344	271
0	1428	301.240747307344	272
0	1429	302	271
0	1432	302.984771417035	272
0	1433	302.984771417035	273
0	1434	303	272
0	1436	304	271
0	1439	304.026913335285	272
0	1440	304.026913335285	273
0	1442	304.271465462447	274
0	1443	304.271465462447	275
0	1444	305	274
0	1447	305.529326221642	275
0	1448	305.529326221642	276
0	1449	306	275
0	1452	306.398305043249	276
0	1453	306.398305043249	277
0	1454	307	276
0	1457	307.134520600733	277
0	1458	307.134520600733	278
0	1460	307.7091411371	279
0	1461	307.7091411371	280
0	1462	308	279
0	1464	309	278
0	1467	309.826939140233	279
0	1468	309.826939140233	280
0	1469	310	279
0	1471	311	278
0	1474	311.820276478681	279
0	1475	311.820276478681	280
0	1476	312	279
0	1479	312.353407360789	280
0	1480	312.353407360789	281
0	1481	313	280
0	1484	313.835959521715	281
0	1485	313.835959521715	282
0	1486	314	281
0	1489	314.543718053566	282
0	1490	314.543718053566	283
0	1491	315	282
0	1494	315.67097147117	283
0	1495	315.67097147117	284
0	1496	316	283
0	1499	316.252267173337	284
0	1500	316.252267173337	285
0	1501	317	284
0	1504	317.000004939525	285
0	1505	317.000004939525	286
0	1506	318	285
0	1509	318.854122149519	286
0	1510	318.854122149519	287
0	1511	319	286
0	1514	319.988114546176	287
0	1515	319.988114546176	288
0	1516	320	287
0	1519	320.855984645239	288
0	1520	320.855984645239	289
0	1521	321	288
0	1524	321.45428941345	289
0	1525	321.45428941345	290
0	1526	322	289
0	1528	323	288
0	1531	323.107961603601	289
0	1532	323.107961603601	290
0	1534	323.594124589613	291
0	1535	323.594124589613	292
0	1537	323.649137352137	293
0	1538	323.649137352137	294
0	1539	324	293
0	1542	324.362525389986	294
0	1543	324.362525389986	295
0	1544	325	294
0	1547	325.030111279239	295
0	1548	325.030111279239	296
0	1549	326	295
0	1552	326.688375845254	296
0	1553	326.688375845254	297
0	1554	327	296
0	1557	327.567329092176	297
0	1558	327.567329092176	298
0	1559	328	297
0	1562	328.94356589995	298
0	1563	328.94356589995	299
0	1564	329	298
0	1567	329.915870278614	299
0	1568	329.915870278614	300
0	1569	330	299
0	1572	330.426556679651	300
0	1573	330.426556679651	301
0	1574	331	300
0	1577	331.894473977272	301
0	1578	331.894473977272	302
0	1579	332	301
0	1581	333	300
0	1584	333.103219521528	301
0	1585	333.103219521528	302
0	1587	333.594335077939	303
0	1588	333.594335077939	304
0	1589	334	303
0	1592	334.770464443517	304
0	1593	334.770464443517	305
0	1594	335	304
0	1597	335.429864431827	305
0	1598	335.429864431827	306
0	1599	336	305
0	1602	336.215717931206	306
0	1603	336.215717931206	307
0	1604	337	306
0	1607	337.468664756993	307
0	1608	337.468664756993	308
0	1609	338	307
0	1612	338.431846471526	308
0	1613	338.431846471526	309
0	1614	339	308
0	1617	339.489002871751	309
0	1618	339.489002871751	310
0	1620	339.536958904492	311
0	1621	339.536958904492	312
0	1622	340	311
0	1625	340.455036503755	312
0	1626	340.455036503755	313
0	1627	341	312
0	1630	341.332711873051	313
0	1631	341.332711873051	314
0	1632	342	313
0	1635	342.261754150411	314
0	1636	342.261754150411	315
0	1637	343	314
0	1639	344	313
0	1642	344.006625231847	314
0	1643	344.006625231847	315
0	1645	344.468966177922	316
0	1646	344.468966177922	317
0	1647	345	316
0	1650	345.877214730974	317
0	1651	345.877214730974	318
0	1652	346	317
0	1655	346.913799977263	318
0	1656	346.913799977263	319
0	1657	347	318
0	1659	348	317
0	1662	348.520864931284	318
0	1663	348.520864931284	319
0	1664	349	318
0	1667	349.468247739169	319
0	1668	349.468247739169	320
0	1669	350	319
0	1672	350.714103726421	320
0	1673	350.714103726421	321
0	1674	351	320
0	1677	351.46815859698	321
0	1678	351.46815859698	322
0	1679	352	321
0	1681	353	320
0	1684	353.118600799771	321
0	1685	353.118600799771	322
0	1687	353.770488380976	323
0	1688	353.770488380976	324
0	1689	354	323
0	1692	354.758912433648	324
0	1693	354.758912433648	325
0	1694	355	324
0	1697	355.822452125065	325
0	1698	355.822452125065	326
0	1700	355.948754509163	327
0	1701	355.948754509163	328
0	1702	356	327
0	1704	357	326
0	1707	357.161124332545	327
0	1708	357.161124332545	328
0	1709	358	327
0	1712	358.135917867963	328
0	1713	358.135917867963	329
0	1715	358.743143445431	330
0	1716	358.743143445431	331
0	1717	359	330
0	1719	360	329
0	1722	360.030413396859	330
0	1723	360.030413396859	331
0	1724	361	330
0	1727	361.052911618647	331
0	1728	361.052911618647	332
0	1730	361.97366039252	333
0	1731	361.97366039252	334
0	1732	362	333
0	1735	362.723829260503	334
0	1736	362.723829260503	335
0	1737	363	334
0	1740	363.696543483219	335
0	1741	363.696543483219	336
0	1742	364	335
0	1745	364.344897932279	336
0	1746	364.344897932279	337
0	1747	365	336
0	1749	366	335
0	1752	366.141501592255	336
0	1753	366.141501592255	337
0	1754	367	336
0	1757	367.85046384051	337
0	1758	367.85046384051	338
0	1759	368	337
0	1761	369	336
0	1764	369.304571837056	337
0	1765	369.304571837056	338
0	1766	370	337
0	1768	371	336
0	1771	371.667404109191	337
0	1772	371.667404109191	338
0	1774	371.853829772673	339
0	1775	371.853829772673	340
0	1776	372	339
0	1779	372.055209860121	340
0	1780	372.055209860121	341
0	1782	372.647445334357	342
0	1783	372.647445334357	343
0	1784	373	342
0	1786	374	341
0	1789	374.406108817939	342
0	1790	374.406108817939	343
0	1791	375	342
0	1794	375.285974717309	343
0	1795	375.285974717309	344
0	1796	376	343
0	1799	376.806751590953	344
0	1800	376.806751590953	345
0	1801	377	344
0	1804	377.822978089595	345
0	1805	377.822978089595	346
0	1806	378	345
0	1808	379	344
0	1811	379.273489911923	345
0	1812	379.273489911923	346
0	1814	379.555210284358	347
0	1815	379.555210284358	348
0	1816	380	347
0	1819	380.482956556492	348
0	1820	380.482956556492	349
0	1821	381	348
0	1824	381.036702017163	349
0	1825	381.036702017163	350
0	1827	381.608704933569	351
0	1828	381.608704933569	352
0	1829	382	351
0	1831	383	350
0	1834	383.054479871228	351
0	1835	383.054479871228	352
0	1836	384	351
0	1839	384.203881288907	352
0	1840	384.203881288907	353
0	1841	385	352
0	1844	385.844851921152	353
0	1845	385.844851921152	354
0	1846	386	353
0	1849	386.440892855928	354
0	1850	386.440892855928	355
0	1852	386.877890902519	356
0	1853	386.877890902519	357
0	1854	387	356
0	1856	388	355
0	1859	388.791722829464	356
0	1860	388.791722829464	357
0	1861	389	356
0	1864	389.028460923647	357
0	1865	389.028460923647	358
0	1866	390	357
0	1869	390.152081852464	358
0	1870	390.152081852464	359
0	1871	391	358
0	1874	391.59875434482	359
0	1875	391.59875434482	360
0	1876	392	359
0	1878	393	358
0	1881	393.07888225405	359
0	1882	393.07888225405	360
0	1883	394	359
0	1886	394.248615632817	360
0	1887	394.248615632817	361
0	1889	394.821512981099	362
0	1890	394.821512981099	363
0	1891	395	362
0	1894	395.837584533375	363
0	1895	395.837584533375	364
0	1896	396	363
0	1898	397	362
0	1901	397.310755438445	363
0	1902	397.310755438445	364
0	1903	398	363
0	1906	398.718949501027	364
0	1907	398.718949501027	365
0	1908	399	364
0	1910	400	363
0	1913	400.152656010713	364
0	1914	400.152656010713	365
0	1916	400.696928138251	366
0	1917	400.696928138251	367
0	1918	401	366
0	1921	401.318961978232	367
0	1922	401.318961978232	368
0	1923	402	367
0	1925	403	366
0	1928	403.60482551794	367
0	1929	403.60482551794	368
0	1930	404	367
0	1933	404.865279394262	368
0	1934	404.865279394262	369
0	1935	405	368
0	1938	405.822037221712	369
0	1939	405.822037221712	370
0	1940	406	369
0	1943	406.306341440462	370
0	1944	406.306341440462	371
0	1946	406.821474359791	372
0	1947	406.821474359791	373
0	1948	407	372
0	1950	408	371
0	1953	408.24950129457	372
0	1954	408.24950129457	373
0	1955	409	372
0	1958	409.497169268317	373
0	1959	409.497169268317	374
0	1961	409.98320346016	375
0	1962	409.98320346016	376
0	1963	410	375
0	1966	410.957202430889	376
0	1967	410.957202430889	377
0	1968	411	376
0	1970	412	375
0	1973	412.097393941531	376
0	1974	412.097393941531	377
0	1976	412.649313543776	378
0	1977	412.649313543776	379
0	1978	413	378
0	1981	413.762982336299	379
0	1982	413.762982336299	380
0	1983	414	379
0	1986	414.921246896856	380
0	1987	414.921246896856	381
0	1988	415	380
0	1990	416	379
0	1993	416.430752367785	380
0	1994	416.430752367785	381
0	1996	416.982307200469	382
0	1997	416.982307200469	383
0	1998	417	382
0	2001	417.441982956241	383
0	2002	417.441982956241	384
0	2003	418	383
0	2006	418.748081350338	384
0	2007	418.748081350338	385
0	2009	418.903710863584	386
0	2010	418.903710863584	387
0	2011	419	386
0	2014	419.415353231213	387
0	2015	419.415353231213	388
0	2016	420	387
0	2019	420.422571544666	388
0	2020	420.422571544666	389
0	2021	421	388
0	2024	421.230758861981	389
0	2025	421.230758861981	390
0	2027	421.762191441245	391
0	2028	421.762191441245	392
0	2029	422	391
0	2031	423	390
0	2034	423.295401513518	391
0	2035	423.295401513518	392
0	2036	424	391
0	2038	425	390
0	2041	425.867199666601	391
0	2042	425.867199666601	392
0	2043	426	391
0	2046	426.495030673553	392
0	2047	426.495030673553	393
0	2049	426.87774832223	394
0	2050	426.87774832223	395
0	2051	427	394
0	2054	427.722262025736	395
0	2055	427.722262025736	396
0	2056	428	395
0	2059	428.914103783332	396
0	2060	428.914103783332	397
0	2061	429	396
0	2063	430	395
0	2066	430.211226466874	396
0	2067	430.211226466874	397
0	2068	431	396
0	2071	431.406225726791	397
0	2072	431.406225726791	398
0	2073	432	397
0	2076	432.550613223361	398
0	2077	432.550613223361	399
0	2078	433	398
0	2081	433.714493857781	399
0	2082	433.714493857781	400
0	2083	434	399
0	2086	434.510533097796	400
0	2087	434.510533097796	401
0	2088	435	400
0	2091	435.176419238538	401
0	2092	435.176419238538	402
0	2093	436	401
0	2095	437	400
0	2098	437.129607014826	401
0	2099	437.129607014826	402
0	2100	438	401
0	2102	439	400
0	2105	439.031067922364	401
0	2106	439.031067922364	402