version 3
run MMc-3-20221127-11:38:40-7588
attr configname MMc
attr datetime 20221127-11:38:40
attr datetimef 20221127-113840
attr experiment MMc
attr inifile omnetpp.ini
attr iterationvars "$mean=uniform(0.5s, 1.5s), $dev=0.5*(uniform(0.5s, 1.5s)), $time=1.0, $num=1, $0=33434, $1=56673, $2=23567"
attr iterationvarsd mean=uniform(0.5s,_1.5s)/dev=0.5#2a(uniform(0.5s,_1.5s))/time=1.0/num=1/33434/56673/23567
attr iterationvarsf mean=uniform(0.5s,_1.5s),dev=0.5#2a(uniform(0.5s,_1.5s)),time=1.0,num=1,33434,56673,23567-
attr measurement "$mean=uniform(0.5s, 1.5s), $dev=0.5*(uniform(0.5s, 1.5s)), $time=1.0, $num=1, $0=33434, $1=56673, $2=23567"
attr network MMc
attr processid 7588
attr repetition 3
attr replication #3
attr resultdir results
attr runnumber 3
attr seedset 3
itervar dev "0.5*(uniform(0.5s, 1.5s))"
itervar mean "uniform(0.5s, 1.5s)"
itervar num 1
itervar time 1.0
config description "MMc module"
config network MMc
config MMc.source.interArrivalTime "truncnormal(uniform(0.5s, 1.5s), 0.5*(uniform(0.5s, 1.5s)))"
config MMc.mmc.serviceTime 1.0s
config MMc.mmc.c 1
config MMc.mmc.capacity 10000
config record-eventlog false
config **.scalar-recording true
config **.vector-recording true
config repeat 4
config seed-1-mt 33434
config seed-2-mt 56673
config seed-3-mt 23567
config output-vector-file MMc-1-1.0-results/3.vec
config output-scalar-file MMc-1-1.0-results/3.sca

vector 0 MMc.mmc queueLength:vector ETV
attr interpolationmode none
attr recordingmode vector
attr title "queue length"
vector 1 MMc.mmc util:vector ETV
attr interpolationmode none
attr recordingmode vector
attr title resources
0	0	0	0
0	3	10	1
0	4	11	0
0	7	11.290645649544	1
0	8	11.290645649544	2
0	10	11.7447159427	3
0	11	11.7447159427	4
0	12	12	3
0	14	13	2
0	16	14	1
0	19	14.128223294047	2
0	20	14.128223294047	3
0	22	14.756252894364	4
0	23	14.756252894364	5
0	24	15	4
0	27	15.198995251919	5
0	28	15.198995251919	6
0	30	15.387675897256	7
0	31	15.387675897256	8
0	32	16	7
0	35	16.361215612448	8
0	36	16.361215612448	9
0	37	17	8
0	39	18	7
0	42	18.10497647481	8
0	43	18.10497647481	9
0	44	19	8
0	47	19.427607787294	9
0	48	19.427607787294	10
0	50	19.745034261399	11
0	51	19.745034261399	12
0	53	19.998367414651	13
0	54	19.998367414651	14
0	55	20	13
0	58	20.721619472005	14
0	59	20.721619472005	15
0	60	21	14
0	62	22	13
0	65	22.217239612683	14
0	66	22.217239612683	15
0	67	23	14
0	70	23.233640499537	15
0	71	23.233640499537	16
0	72	24	15
0	74	25	14
0	77	25.539628075291	15
0	78	25.539628075291	16
0	79	26	15
0	82	26.796846027276	16
0	83	26.796846027276	17
0	84	27	16
0	87	27.180687055143	17
0	88	27.180687055143	18
0	90	27.884461052057	19
0	91	27.884461052057	20
0	92	28	19
0	95	28.851290761614	20
0	96	28.851290761614	21
0	97	29	20
0	100	29.637852094527	21
0	101	29.637852094527	22
0	102	30	21
0	105	30.537450868283	22
0	106	30.537450868283	23
0	107	31	22
0	110	31.439834843554	23
0	111	31.439834843554	24
0	113	31.800441599489	25
0	114	31.800441599489	26
0	115	32	25
0	117	33	24
0	120	33.09676471564	25
0	121	33.09676471564	26
0	122	34	25
0	125	34.303286721971	26
0	126	34.303286721971	27
0	127	35	26
0	130	35.397906188724	27
0	131	35.397906188724	28
0	132	36	27
0	135	36.310903385342	28
0	136	36.310903385342	29
0	137	37	28
0	140	37.00353596028	29
0	141	37.00353596028	30
0	143	37.399300406556	31
0	144	37.399300406556	32
0	145	38	31
0	148	38.185818420326	32
0	149	38.185818420326	33
0	151	38.466435608355	34
0	152	38.466435608355	35
0	154	38.955869380616	36
0	155	38.955869380616	37
0	156	39	36
0	159	39.864085311916	37
0	160	39.864085311916	38
0	162	39.869151705997	39
0	163	39.869151705997	40
0	164	40	39
0	167	40.202489300019	40
0	168	40.202489300019	41
0	170	40.931232862681	42
0	171	40.931232862681	43
0	172	41	42
0	174	42	41
0	177	42.161529916092	42
0	178	42.161529916092	43
0	180	42.681230028947	44
0	181	42.681230028947	45
0	182	43	44
0	185	43.573859688183	45
0	186	43.573859688183	46
0	187	44	45
0	190	44.178183255818	46
0	191	44.178183255818	47
0	192	45	46
0	195	45.401882577209	47
0	196	45.401882577209	48
0	197	46	47
0	200	46.43127708894	48
0	201	46.43127708894	49
0	203	46.806135265979	50
0	204	46.806135265979	51
0	205	47	50
0	207	48	49
0	210	48.018793835627	50
0	211	48.018793835627	51
0	212	49	50
0	215	49.990680068154	51
0	216	49.990680068154	52
0	217	50	51
0	220	50.236978372158	52
0	221	50.236978372158	53
0	222	51	52
0	224	52	51
0	227	52.226015545222	52
0	228	52.226015545222	53
0	229	53	52
0	232	53.450156291327	53
0	233	53.450156291327	54
0	235	53.474855025735	55
0	236	53.474855025735	56
0	237	54	55
0	240	54.21559526461	56
0	241	54.21559526461	57
0	242	55	56
0	244	56	55
0	247	56.036409549274	56
0	248	56.036409549274	57
0	249	57	56
0	252	57.975834929252	57
0	253	57.975834929252	58
0	254	58	57
0	257	58.809208562958	58
0	258	58.809208562958	59
0	259	59	58
0	262	59.567165996413	59
0	263	59.567165996413	60
0	264	60	59
0	266	61	58
0	269	61.19048253637	59
0	270	61.19048253637	60
0	272	61.829607063638	61
0	273	61.829607063638	62
0	274	62	61
0	277	62.379660463986	62
0	278	62.379660463986	63
0	279	63	62
0	281	64	61
0	284	64.202529493863	62
0	285	64.202529493863	63
0	287	64.758590009952	64
0	288	64.758590009952	65
0	289	65	64
0	292	65.264459782775	65
0	293	65.264459782775	66
0	294	66	65
0	297	66.931863305439	66
0	298	66.931863305439	67
0	299	67	66
0	301	68	65
0	304	68.235340587094	66
0	305	68.235340587094	67
0	307	68.622726480896	68
0	308	68.622726480896	69
0	309	69	68
0	312	69.310197483024	69
0	313	69.310197483024	70
0	314	70	69
0	317	70.233037034386	70
0	318	70.233037034386	71
0	319	71	70
0	321	72	69
0	324	72.535960961861	70
0	325	72.535960961861	71
0	326	73	70
0	329	73.523410142965	71
0	330	73.523410142965	72
0	331	74	71
0	334	74.442732447952	72
0	335	74.442732447952	73
0	336	75	72
0	339	75.232987955585	73
0	340	75.232987955585	74
0	341	76	73
0	344	76.808704731652	74
0	345	76.808704731652	75
0	346	77	74
0	348	78	73
0	351	78.3942484427	74
0	352	78.3942484427	75
0	354	78.87040074785	76
0	355	78.87040074785	77
0	356	79	76
0	358	80	75
0	361	80.651701665462	76
0	362	80.651701665462	77
0	363	81	76
0	366	81.63734732119	77
0	367	81.63734732119	78
0	368	82	77
0	371	82.23059229216	78
0	372	82.23059229216	79
0	373	83	78
0	376	83.220369441858	79
0	377	83.220369441858	80
0	378	84	79
0	381	84.134629375344	80
0	382	84.134629375344	81
0	383	85	80
0	385	86	79
0	388	86.144028185013	80
0	389	86.144028185013	81
0	391	86.952513221385	82
0	392	86.952513221385	83
0	393	87	82
0	395	88	81
0	397	89	80
0	400	89.098426954162	81
0	401	89.098426954162	82
0	402	90	81
0	405	90.194938798523	82
0	406	90.194938798523	83
0	408	90.756145096741	84
0	409	90.756145096741	85
0	410	91	84
0	412	92	83
0	415	92.232390678401	84
0	416	92.232390678401	85
0	417	93	84
0	420	93.200395925833	85
0	421	93.200395925833	86
0	422	94	85
0	425	94.124790413614	86
0	426	94.124790413614	87
0	428	94.539943579569	88
0	429	94.539943579569	89
0	430	95	88
0	433	95.631155178732	89
0	434	95.631155178732	90
0	435	96	89
0	438	96.381541211577	90
0	439	96.381541211577	91
0	440	97	90
0	443	97.915548911084	91
0	444	97.915548911084	92
0	445	98	91
0	447	99	90
0	450	99.857710233292	91
0	451	99.857710233292	92
0	452	100	91
0	455	100.367125319833	92
0	456	100.367125319833	93
0	457	101	92
0	459	102	91
0	462	102.126941085569	92
0	463	102.126941085569	93
0	465	102.687692951738	94
0	466	102.687692951738	95
0	467	103	94
0	469	104	93
0	472	104.005065681844	94
0	473	104.005065681844	95
0	475	104.748026292026	96
0	476	104.748026292026	97
0	477	105	96
0	480	105.8189923209	97
0	481	105.8189923209	98
0	482	106	97
0	484	107	96
0	487	107.196717948539	97
0	488	107.196717948539	98
0	489	108	97
0	492	108.014217094773	98
0	493	108.014217094773	99
0	494	109	98
0	497	109.138757904874	99
0	498	109.138757904874	100
0	500	109.743424753225	101
0	501	109.743424753225	102
0	502	110	101
0	505	110.910530572894	102
0	506	110.910530572894	103
0	508	110.943389354969	104
0	509	110.943389354969	105
0	510	111	104
0	513	111.749718500617	105
0	514	111.749718500617	106
0	515	112	105
0	518	112.091044186751	106
0	519	112.091044186751	107
0	521	112.365597573623	108
0	522	112.365597573623	109
0	523	113	108
0	526	113.887311841449	109
0	527	113.887311841449	110
0	528	114	109
0	531	114.632867066427	110
0	532	114.632867066427	111
0	533	115	110
0	536	115.610847704601	111
0	537	115.610847704601	112
0	538	116	111
0	541	116.00687178403	112
0	542	116.00687178403	113
0	544	116.603198681659	114
0	545	116.603198681659	115
0	546	117	114
0	549	117.035289358367	115
0	550	117.035289358367	116
0	552	117.771069044774	117
0	553	117.771069044774	118
0	554	118	117
0	557	118.303170649992	118
0	558	118.303170649992	119
0	559	119	118
0	562	119.272792337342	119
0	563	119.272792337342	120
0	565	119.598059268084	121
0	566	119.598059268084	122
0	567	120	121
0	570	120.59339788055	122
0	571	120.59339788055	123
0	572	121	122
0	574	122	121
0	577	122.857841697174	122
0	578	122.857841697174	123
0	579	123	122
0	582	123.75883439748	123
0	583	123.75883439748	124
0	584	124	123
0	586	125	122
0	589	125.771831500089	123
0	590	125.771831500089	124
0	591	126	123
0	594	126.84519734561	124
0	595	126.84519734561	125
0	596	127	124
0	599	127.802902375272	125
0	600	127.802902375272	126
0	601	128	125
0	604	128.796346456084	126
0	605	128.796346456084	127
0	606	129	126
0	609	129.484187279215	127
0	610	129.484187279215	128
0	611	130	127
0	613	131	126
0	615	132	125
0	618	132.099252210156	126
0	619	132.099252210156	127
0	620	133	126
0	623	133.552551656481	127
0	624	133.552551656481	128
0	625	134	127
0	627	135	126
0	630	135.310342543944	127
0	631	135.310342543944	128
0	632	136	127
0	635	136.810719407794	128
0	636	136.810719407794	129
0	637	137	128
0	639	138	127
0	642	138.221642509134	128
0	643	138.221642509134	129
0	644	139	128
0	646	140	127
0	649	140.354715991973	128
0	650	140.354715991973	129
0	651	141	128
0	654	141.73685253153	129
0	655	141.73685253153	130
0	656	142	129
0	659	142.166424403838	130
0	660	142.166424403838	131
0	662	142.403405197834	132
0	663	142.403405197834	133
0	664	143	132
0	666	144	131
0	669	144.345499708342	132
0	670	144.345499708342	133
0	671	145	132
0	674	145.288514185152	133
0	675	145.288514185152	134
0	676	146	133
0	679	146.785440740074	134
0	680	146.785440740074	135
0	681	147	134
0	683	148	133
0	686	148.12251978823	134
0	687	148.12251978823	135
0	688	149	134
0	691	149.277687256735	135
0	692	149.277687256735	136
0	694	149.939607419568	137
0	695	149.939607419568	138
0	696	150	137
0	699	150.909205097698	138
0	700	150.909205097698	139
0	701	151	138
0	703	152	137
0	706	152.369816994667	138
0	707	152.369816994667	139
0	708	153	138
0	711	153.594335699613	139
0	712	153.594335699613	140
0	713	154	139
0	715	155	138
0	718	155.363184719709	139
0	719	155.363184719709	140
0	720	156	139
0	722	157	138
0	725	157.545696834867	139
0	726	157.545696834867	140
0	727	158	139
0	730	158.781379406096	140
0	731	158.781379406096	141
0	732	159	140
0	734	160	139
0	737	160.312369608211	140
0	738	160.312369608211	141
0	739	161	140
0	742	161.495466009493	141
0	743	161.495466009493	142
0	744	162	141
0	747	162.267075015234	142
0	748	162.267075015234	143
0	749	163	142
0	752	163.200800135807	143
0	753	163.200800135807	144
0	754	164	143
0	757	164.72683008001	144
0	758	164.72683008001	145
0	759	165	144
0	762	165.197454923055	145
0	763	165.197454923055	146
0	764	166	145
0	767	166.019364640978	146
0	768	166.019364640978	147
0	770	166.244985423877	148
0	771	166.244985423877	149
0	772	167	148
0	775	167.06529721715	149
0	776	167.06529721715	150
0	777	168	149
0	780	168.080959800675	150
0	781	168.080959800675	151
0	782	169	150
0	785	169.33389147854	151
0	786	169.33389147854	152
0	788	169.944047794253	153
0	789	169.944047794253	154
0	790	170	153
0	793	170.816041772468	154
0	794	170.816041772468	155
0	795	171	154
0	798	171.807456629117	155
0	799	171.807456629117	156
0	800	172	155
0	802	173	154
0	805	173.746607008121	155
0	806	173.746607008121	156
0	807	174	155
0	810	174.649582742856	156
0	811	174.649582742856	157
0	812	175	156
0	814	176	155
0	817	176.486943054153	156
0	818	176.486943054153	157
0	819	177	156
0	822	177.142324294754	157
0	823	177.142324294754	158
0	824	178	157
0	827	178.648340860422	158
0	828	178.648340860422	159
0	829	179	158
0	832	179.568341153529	159
0	833	179.568341153529	160
0	834	180	159
0	837	180.904877819955	160
0	838	180.904877819955	161
0	839	181	160
0	842	181.85158123702	161
0	843	181.85158123702	162
0	844	182	161
0	847	182.656385846007	162
0	848	182.656385846007	163
0	849	183	162
0	852	183.365128116776	163
0	853	183.365128116776	164
0	854	184	163
0	857	184.342194063869	164
0	858	184.342194063869	165
0	859	185	164
0	862	185.250937005601	165
0	863	185.250937005601	166
0	864	186	165
0	867	186.863963018993	166
0	868	186.863963018993	167
0	869	187	166
0	871	188	165
0	873	189	164
0	876	189.294104602977	165
0	877	189.294104602977	166
0	878	190	165
0	881	190.057262523601	166
0	882	190.057262523601	167
0	884	190.91011188798	168
0	885	190.91011188798	169
0	886	191	168
0	888	192	167
0	891	192.66390659893	168
0	892	192.66390659893	169
0	893	193	168
0	896	193.994751045827	169
0	897	193.994751045827	170
0	898	194	169
0	900	195	168
0	902	196	167
0	905	196.87324835279	168
0	906	196.87324835279	169
0	907	197	168
0	909	198	167
0	912	198.979445405007	168
0	913	198.979445405007	169
0	914	199	168
0	916	200	167
0	919	200.157069680695	168
0	920	200.157069680695	169
0	921	201	168
0	924	201.147780686791	169
0	925	201.147780686791	170
0	926	202	169
0	929	202.516858197027	170
0	930	202.516858197027	171
0	931	203	170
0	934	203.388479243164	171
0	935	203.388479243164	172
0	936	204	171
0	939	204.712761983068	172
0	940	204.712761983068	173
0	941	205	172
0	944	205.111853900318	173
0	945	205.111853900318	174
0	947	205.928991082595	175
0	948	205.928991082595	176
0	949	206	175
0	951	207	174
0	954	207.204663894362	175
0	955	207.204663894362	176
0	957	207.822143358822	177
0	958	207.822143358822	178
0	959	208	177
0	961	209	176
0	964	209.290387113503	177
0	965	209.290387113503	178
0	966	210	177
0	969	210.433717896993	178
0	970	210.433717896993	179
0	971	211	178
0	974	211.675423304373	179
0	975	211.675423304373	180
0	976	212	179
0	978	213	178
0	981	213.487958335123	179
0	982	213.487958335123	180
0	983	214	179
0	985	215	178
0	988	215.279119239596	179
0	989	215.279119239596	180
0	990	216	179
0	993	216.079983646364	180
0	994	216.079983646364	181
0	995	217	180
0	998	217.503653145757	181
0	999	217.503653145757	182
0	1001	217.519038214597	183
0	1002	217.519038214597	184
0	1004	217.911949791589	185
0	1005	217.911949791589	186
0	1006	218	185
0	1008	219	184
0	1011	219.679987939628	185
0	1012	219.679987939628	186
0	1013	220	185
0	1015	221	184
0	1018	221.271152576419	185
0	1019	221.271152576419	186
0	1020	222	185
0	1023	222.751536055947	186
0	1024	222.751536055947	187
0	1025	223	186
0	1027	224	185
0	1030	224.010915399839	186
0	1031	224.010915399839	187
0	1033	224.42784589768	188
0	1034	224.42784589768	189
0	1035	225	188
0	1038	225.496516511388	189
0	1039	225.496516511388	190
0	1040	226	189
0	1043	226.675290896902	190
0	1044	226.675290896902	191
0	1045	227	190
0	1048	227.519618746896	191
0	1049	227.519618746896	192
0	1050	228	191
0	1053	228.100537970448	192
0	1054	228.100537970448	193
0	1056	228.719133454798	194
0	1057	228.719133454798	195
0	1059	228.840166892079	196
0	1060	228.840166892079	197
0	1061	229	196
0	1063	230	195
0	1066	230.454480842399	196
0	1067	230.454480842399	197
0	1068	231	196
0	1071	231.322492825889	197
0	1072	231.322492825889	198
0	1073	232	197
0	1076	232.498996756824	198
0	1077	232.498996756824	199
0	1078	233	198
0	1081	233.00539720619	199
0	1082	233.00539720619	200
0	1084	233.94435715228	201
0	1085	233.94435715228	202
0	1086	234	201
0	1088	235	200
0	1090	236	199
0	1093	236.319895336527	200
0	1094	236.319895336527	201
0	1096	236.713090091538	202
0	1097	236.713090091538	203
0	1098	237	202
0	1101	237.377587944937	203
0	1102	237.377587944937	204
0	1103	238	203
0	1106	238.970054082221	204
0	1107	238.970054082221	205
0	1108	239	204
0	1110	240	203
0	1113	240.061264401479	204
0	1114	240.061264401479	205
0	1116	240.442548739402	206
0	1117	240.442548739402	207
0	1118	241	206
0	1121	241.537714985482	207
0	1122	241.537714985482	208
0	1123	242	207
0	1125	243	206
0	1128	243.575427547153	207
0	1129	243.575427547153	208
0	1130	244	207
0	1132	245	206
0	1135	245.07816165681	207
0	1136	245.07816165681	208
0	1138	245.526159667466	209
0	1139	245.526159667466	210
0	1140	246	209
0	1143	246.300540558668	210
0	1144	246.300540558668	211
0	1145	247	210
0	1148	247.218526768904	211
0	1149	247.218526768904	212
0	1150	248	211
0	1153	248.184952348848	212
0	1154	248.184952348848	213
0	1156	248.722143401654	214
0	1157	248.722143401654	215
0	1158	249	214
0	1160	250	213
0	1163	250.190753180142	214
0	1164	250.190753180142	215
0	1165	251	214
0	1167	252	213
0	1170	252.504408088137	214
0	1171	252.504408088137	215
0	1173	252.864417773785	216
0	1174	252.864417773785	217
0	1175	253	216
0	1177	254	215
0	1180	254.958655019498	216
0	1181	254.958655019498	217
0	1182	255	216
0	1185	255.810760581556	217
0	1186	255.810760581556	218
0	1187	256	217
0	1189	257	216
0	1192	257.193618453085	217
0	1193	257.193618453085	218
0	1194	258	217
0	1196	259	216
0	1199	259.249301500496	217
0	1200	259.249301500496	218
0	1201	260	217
0	1204	260.322047551942	218
0	1205	260.322047551942	219
0	1207	260.803212241036	220
0	1208	260.803212241036	221
0	1209	261	220
0	1211	262	219
0	1214	262.195446571688	220
0	1215	262.195446571688	221
0	1216	263	220
0	1219	263.440494365997	221
0	1220	263.440494365997	222
0	1221	264	221
0	1224	264.411612661519	222
0	1225	264.411612661519	223
0	1226	265	222
0	1229	265.027766649893	223
0	1230	265.027766649893	224
0	1232	265.887170175475	225
0	1233	265.887170175475	226
0	1234	266	225
0	1237	266.916340161187	226
0	1238	266.916340161187	227
0	1239	267	226
0	1242	267.201120789196	227
0	1243	267.201120789196	228
0	1244	268	227
0	1247	268.556062393772	228
0	1248	268.556062393772	229
0	1250	268.918697388012	230
0	1251	268.918697388012	231
0	1252	269	230
0	1255	269.662242582343	231
0	1256	269.662242582343	232
0	1257	270	231
0	1259	271	230
0	1262	271.608107560549	231
0	1263	271.608107560549	232
0	1264	272	231
0	1267	272.560163775641	232
0	1268	272.560163775641	233
0	1269	273	232
0	1271	274	231
0	1274	274.158918066846	232
0	1275	274.158918066846	233
0	1276	275	232
0	1279	275.442613632195	233
0	1280	275.442613632195	234
0	1281	276	233
0	1284	276.782472781253	234
0	1285	276.782472781253	235
0	1286	277	234
0	1289	277.556806439173	235
0	1290	277.556806439173	236
0	1291	278	235
0	1294	278.112774849701	236
0	1295	278.112774849701	237
0	1296	279	236
0	1299	279.401455410035	237
0	1300	279.401455410035	238
0	1301	280	237
0	1304	280.038530887716	238
0	1305	280.038530887716	239
0	1307	280.462364953339	240
0	1308	280.462364953339	241
0	1309	281	240
0	1311	282	239
0	1314	282.442128544968	240
0	1315	282.442128544968	241
0	1317	282.825715815989	242
0	1318	282.825715815989	243
0	1320	282.890798445334	244
0	1321	282.890798445334	245
0	1322	283	244
0	1325	283.979793830714	245
0	1326	283.979793830714	246
0	1327	284	245
0	1330	284.567482141425	246
0	1331	284.567482141425	247
0	1332	285	246
0	1335	285.419893006269	247
0	1336	285.419893006269	248
0	1337	286	247
0	1340	286.232670910578	248
0	1341	286.232670910578	249
0	1342	287	248
0	1345	287.974898221974	249
0	1346	287.974898221974	250
0	1347	288	249
0	1349	289	248
0	1352	289.859706579916	249
0	1353	289.859706579916	250
0	1354	290	249
0	1356	291	248
0	1359	291.735259150848	249
0	1360	291.735259150848	250
0	1361	292	249
0	1364	292.843819783408	250
0	1365	292.843819783408	251
0	1366	293	250
0	1369	293.738828990517	251
0	1370	293.738828990517	252
0	1371	294	251
0	1374	294.684251054594	252
0	1375	294.684251054594	253
0	1376	295	252
0	1379	295.993852828021	253
0	1380	295.993852828021	254
0	1381	296	253
0	1384	296.949408734451	254
0	1385	296.949408734451	255
0	1386	297	254
0	1388	298	253
0	1391	298.880549090472	254
0	1392	298.880549090472	255
0	1393	299	254
0	1395	300	253
0	1398	300.230973551512	254
0	1399	300.230973551512	255
0	1400	301	254
0	1403	301.377311099489	255
0	1404	301.377311099489	256
0	1405	302	255
0	1407	303	254
0	1410	303.09590452779	255
0	1411	303.09590452779	256
0	1412	304	255
0	1415	304.481214591763	256
0	1416	304.481214591763	257
0	1417	305	256
0	1419	306	255
0	1422	306.003989997942	256
0	1423	306.003989997942	257
0	1425	306.858264826744	258
0	1426	306.858264826744	259
0	1427	307	258
0	1429	308	257
0	1432	308.085971074816	258
0	1433	308.085971074816	259
0	1434	309	258
0	1437	309.489420125578	259
0	1438	309.489420125578	260
0	1439	310	259
0	1442	310.631437310898	260
0	1443	310.631437310898	261
0	1444	311	260
0	1446	312	259
0	1449	312.168632005917	260
0	1450	312.168632005917	261
0	1452	312.973267884465	262
0	1453	312.973267884465	263
0	1454	313	262
0	1457	313.25076929928	263
0	1458	313.25076929928	264
0	1460	313.898759168387	265
0	1461	313.898759168387	266
0	1462	314	265
0	1465	314.629924162172	266
0	1466	314.629924162172	267
0	1467	315	266
0	1470	315.824772980677	267
0	1471	315.824772980677	268
0	1472	316	267
0	1475	316.842181301955	268
0	1476	316.842181301955	269
0	1477	317	268
0	1480	317.134491698414	269
0	1481	317.134491698414	270
0	1482	318	269
0	1485	318.221987790127	270
0	1486	318.221987790127	271
0	1488	318.277642837395	272
0	1489	318.277642837395	273
0	1490	319	272
0	1493	319.033462548033	273
0	1494	319.033462548033	274
0	1496	319.128135379942	275
0	1497	319.128135379942	276
0	1498	320	275
0	1501	320.224838522073	276
0	1502	320.224838522073	277
0	1504	320.672112879384	278
0	1505	320.672112879384	279
0	1506	321	278
0	1509	321.95868244812	279
0	1510	321.95868244812	280
0	1511	322	279
0	1513	323	278
0	1516	323.21090324452	279
0	1517	323.21090324452	280
0	1518	324	279
0	1521	324.011038818215	280
0	1522	324.011038818215	281
0	1524	324.049284995793	282
0	1525	324.049284995793	283
0	1526	325	282
0	1529	325.071626401692	283
0	1530	325.071626401692	284
0	1532	325.333191416193	285
0	1533	325.333191416193	286
0	1534	326	285
0	1536	327	284
0	1539	327.015849606207	285
0	1540	327.015849606207	286
0	1541	328	285
0	1544	328.384469459853	286
0	1545	328.384469459853	287
0	1546	329	286
0	1548	330	285
0	1551	330.317869308907	286
0	1552	330.317869308907	287
0	1553	331	286
0	1556	331.305983146903	287
0	1557	331.305983146903	288
0	1558	332	287
0	1561	332.837816233253	288
0	1562	332.837816233253	289
0	1563	333	288
0	1565	334	287
0	1568	334.672173758846	288
0	1569	334.672173758846	289
0	1570	335	288
0	1573	335.378697345816	289
0	1574	335.378697345816	290
0	1575	336	289
0	1577	337	288
0	1580	337.059377689595	289
0	1581	337.059377689595	290
0	1583	337.896336326154	291
0	1584	337.896336326154	292
0	1585	338	291
0	1588	338.283764275418	292
0	1589	338.283764275418	293
0	1590	339	292
0	1593	339.236057909025	293
0	1594	339.236057909025	294
0	1596	339.85428022535	295
0	1597	339.85428022535	296
0	1598	340	295
0	1600	341	294
0	1603	341.286364056949	295
0	1604	341.286364056949	296
0	1605	342	295
0	1608	342.047832865849	296
0	1609	342.047832865849	297
0	1610	343	296
0	1613	343.254384356106	297
0	1614	343.254384356106	298
0	1615	344	297
0	1618	344.973810344133	298
0	1619	344.973810344133	299
0	1620	345	298
0	1623	345.27004008837	299
0	1624	345.27004008837	300
0	1625	346	299
0	1628	346.086681637149	300
0	1629	346.086681637149	301
0	1630	347	300
0	1633	347.804305387	301
0	1634	347.804305387	302
0	1635	348	301
0	1638	348.788986698247	302
0	1639	348.788986698247	303
0	1640	349	302
0	1643	349.805527185571	303
0	1644	349.805527185571	304
0	1645	350	303
0	1648	350.864945185107	304
0	1649	350.864945185107	305
0	1650	351	304
0	1653	351.597171811355	305
0	1654	351.597171811355	306
0	1655	352	305
0	1657	353	304
0	1660	353.132365069029	305
0	1661	353.132365069029	306
0	1662	354	305
0	1665	354.416785125429	306
0	1666	354.416785125429	307
0	1667	355	306
0	1670	355.385846414821	307
0	1671	355.385846414821	308
0	1672	356	307
0	1675	356.82789020418	308
0	1676	356.82789020418	309
0	1678	356.966852949433	310
0	1679	356.966852949433	311
0	1680	357	310
0	1682	358	309
0	1685	358.287869616496	310
0	1686	358.287869616496	311
0	1687	359	310
0	1690	359.921056108532	311
0	1691	359.921056108532	312
0	1692	360	311
0	1694	361	310
0	1697	361.536265025963	311
0	1698	361.536265025963	312
0	1699	362	311
0	1702	362.422537542251	312
0	1703	362.422537542251	313
0	1704	363	312
0	1707	363.715818970272	313
0	1708	363.715818970272	314
0	1709	364	313
0	1712	364.936692004755	314
0	1713	364.936692004755	315
0	1714	365	314
0	1717	365.097186360632	315
0	1718	365.097186360632	316
0	1719	366	315
0	1722	366.168202065339	316
0	1723	366.168202065339	317
0	1724	367	316
0	1727	367.242318460112	317
0	1728	367.242318460112	318
0	1729	368	317
0	1732	368.532960710352	318
0	1733	368.532960710352	319
0	1734	369	318
0	1737	369.918804296611	319
0	1738	369.918804296611	320
0	1739	370	319
0	1742	370.884440954785	320
0	1743	370.884440954785	321
0	1744	371	320
0	1747	371.537267869829	321
0	1748	371.537267869829	322
0	1749	372	321
0	1752	372.668434450999	322
0	1753	372.668434450999	323
0	1755	372.941664574752	324
0	1756	372.941664574752	325
0	1757	373	324
0	1760	373.960799183699	325
0	1761	373.960799183699	326
0	1762	374	325
0	1764	375	324
0	1767	375.349087623371	325
0	1768	375.349087623371	326
0	1770	375.942374086082	327
0	1771	375.942374086082	328
0	1772	376	327
0	1775	376.549184473223	328
0	1776	376.549184473223	329
0	1777	377	328
0	1779	378	327
0	1782	378.343770992028	328
0	1783	378.343770992028	329
0	1785	378.510516888095	330
0	1786	378.510516888095	331
0	1787	379	330
0	1790	379.857683773174	331
0	1791	379.857683773174	332
0	1792	380	331
0	1795	380.753978526943	332
0	1796	380.753978526943	333
0	1797	381	332
0	1799	382	331
0	1802	382.030675469013	332
0	1803	382.030675469013	333
0	1804	383	332
0	1807	383.24971067743	333
0	1808	383.24971067743	334
0	1810	383.686625419479	335
0	1811	383.686625419479	336
0	1812	384	335
0	1814	385	334
0	1817	385.280190076502	335
0	1818	385.280190076502	336
0	1819	386	335
0	1822	386.920960078047	336
0	1823	386.920960078047	337
0	1824	387	336
0	1827	387.726968442895	337
0	1828	387.726968442895	338
0	1830	387.833527043736	339
0	1831	387.833527043736	340
0	1832	388	339
0	1834	389	338
0	1837	389.488710885656	339
0	1838	389.488710885656	340
0	1839	390	339
0	1842	390.349265059251	340
0	1843	390.349265059251	341
0	1844	391	340
0	1847	391.920154787152	341
0	1848	391.920154787152	342
0	1849	392	341
0	1852	392.442823810779	342
0	1853	392.442823810779	343
0	1854	393	342
0	1857	393.982247494342	343
0	1858	393.982247494342	344
0	1859	394	343
0	1861	395	342
0	1864	395.548776769115	343
0	1865	395.548776769115	344
0	1866	396	343
0	1869	396.431103438955	344
0	1870	396.431103438955	345
0	1871	397	344
0	1873	398	343
0	1876	398.034735159807	344
0	1877	398.034735159807	345
0	1878	399	344
0	1881	399.399633809319	345
0	1882	399.399633809319	346
0	1883	400	345
0	1886	400.813880119892	346
0	1887	400.813880119892	347
0	1888	401	346
0	1890	402	345
0	1893	402.272442858824	346
0	1894	402.272442858824	347
0	1895	403	346
0	1897	404	345
0	1900	404.541843225853	346
0	1901	404.541843225853	347
0	1902	405	346
0	1905	405.367888864195	347
0	1906	405.367888864195	348
0	1907	406	347
0	1910	406.671761274484	348
0	1911	406.671761274484	349
0	1912	407	348
0	1915	407.969518388751	349
0	1916	407.969518388751	350
0	1917	408	349
0	1919	409	348
0	1922	409.333165837409	349
0	1923	409.333165837409	350
0	1924	410	349
0	1927	410.826001264742	350
0	1928	410.826001264742	351
0	1929	411	350
0	1931	412	349
0	1934	412.331561972662	350
0	1935	412.331561972662	351
0	1937	412.426918532055	352
0	1938	412.426918532055	353
0	1939	413	352
0	1942	413.617821750778	353
0	1943	413.617821750778	354
0	1944	414	353
0	1946	415	352
0	1949	415.180479199679	353
0	1950	415.180479199679	354
0	1951	416	353
0	1954	416.49178503272	354
0	1955	416.49178503272	355
0	1956	417	354
0	1958	418	353
0	1961	418.193525253641	354
0	1962	418.193525253641	355
0	1963	419	354
0	1966	419.195670369151	355
0	1967	419.195670369151	356
0	1968	420	355
0	1971	420.339001192964	356
0	1972	420.339001192964	357
0	1974	420.437469452801	358
0	1975	420.437469452801	359
0	1976	421	358
0	1979	421.594791360522	359
0	1980	421.594791360522	360
0	1982	421.916308139016	361
0	1983	421.916308139016	362
0	1984	422	361
0	1987	422.569160105689	362
0	1988	422.569160105689	363
0	1989	423	362
0	1992	423.602798245713	363
0	1993	423.602798245713	364
0	1994	424	363
0	1997	424.85518565144	364
0	1998	424.85518565144	365
0	1999	425	364
0	2002	425.743414976127	365
0	2003	425.743414976127	366
0	2004	426	365
0	2006	427	364
0	2009	427.191024814341	365
0	2010	427.191024814341	366
0	2012	427.665834833472	367
0	2013	427.665834833472	368
0	2014	428	367
0	2016	429	366
0	2019	429.548961851337	367
0	2020	429.548961851337	368
0	2021	430	367
0	2024	430.390194514851	368
0	2025	430.390194514851	369
0	2026	431	368
0	2029	431.15713374897	369
0	2030	431.15713374897	370
0	2032	431.208205226485	371
0	2033	431.208205226485	372
0	2034	432	371
0	2037	432.513743842875	372
0	2038	432.513743842875	373
0	2039	433	372
0	2041	434	371
0	2043	435	370
0	2046	435.553012763379	371
0	2047	435.553012763379	372
0	2048	436	371
0	2051	436.546305619217	372
0	2052	436.546305619217	373
0	2053	437	372
0	2056	437.108563546687	373
0	2057	437.108563546687	374
0	2059	437.161474959586	375
0	2060	437.161474959586	376
0	2061	438	375
0	2064	438.799551898512	376
0	2065	438.799551898512	377
0	2066	439	376
0	2068	440	375
0	2071	440.032239641403	376
0	2072	440.032239641403	377
0	2073	441	376
0	2076	441.337239276032	377
0	2077	441.337239276032	378
0	2078	442	377
0	2081	442.080551597183	378
0	2082	442.080551597183	379
0	2083	443	378
0	2086	443.821883981798	379
0	2087	443.821883981798	380
0	2088	444	379
0	2090	445	378
0	2093	445.315216977681	379
0	2094	445.315216977681	380
0	2096	445.503698420378	381
0	2097	445.503698420378	382
0	2098	446	381
0	2100	447	380
0	2103	447.699270410938	381
0	2104	447.699270410938	382
0	2105	448	381
0	2107	449	380
0	2110	449.206711742054	381
0	2111	449.206711742054	382
0	2113	449.819471178995	383
0	2114	449.819471178995	384
0	2115	450	383
0	2118	450.957877819451	384
0	2119	450.957877819451	385
0	2120	451	384
0	2122	452	383