version 3
run MMc-12-20221127-11:38:40-7588
attr configname MMc
attr datetime 20221127-11:38:40
attr datetimef 20221127-113840
attr experiment MMc
attr inifile omnetpp.ini
attr iterationvars "$mean=uniform(0.5s, 1.5s), $dev=0.5*(uniform(0.5s, 1.5s)), $time=1.5, $num=1, $0=53542, $1=75335, $2=34542"
attr iterationvarsd mean=uniform(0.5s,_1.5s)/dev=0.5#2a(uniform(0.5s,_1.5s))/time=1.5/num=1/53542/75335/34542
attr iterationvarsf mean=uniform(0.5s,_1.5s),dev=0.5#2a(uniform(0.5s,_1.5s)),time=1.5,num=1,53542,75335,34542-
attr measurement "$mean=uniform(0.5s, 1.5s), $dev=0.5*(uniform(0.5s, 1.5s)), $time=1.5, $num=1, $0=53542, $1=75335, $2=34542"
attr network MMc
attr processid 7588
attr repetition 0
attr replication #0
attr resultdir results
attr runnumber 12
attr seedset 12
itervar dev "0.5*(uniform(0.5s, 1.5s))"
itervar mean "uniform(0.5s, 1.5s)"
itervar num 1
itervar time 1.5
config description "MMc module"
config network MMc
config MMc.source.interArrivalTime "truncnormal(uniform(0.5s, 1.5s), 0.5*(uniform(0.5s, 1.5s)))"
config MMc.mmc.serviceTime 1.5s
config MMc.mmc.c 1
config MMc.mmc.capacity 10000
config record-eventlog false
config **.scalar-recording true
config **.vector-recording true
config repeat 4
config seed-1-mt 53542
config seed-2-mt 75335
config seed-3-mt 34542
config output-vector-file MMc-1-1.5-results/0.vec
config output-scalar-file MMc-1-1.5-results/0.sca

vector 0 MMc.mmc queueLength:vector ETV
attr interpolationmode none
attr recordingmode vector
attr title "queue length"
vector 1 MMc.mmc util:vector ETV
attr interpolationmode none
attr recordingmode vector
attr title resources
0	0	0	0
0	3	10	1
0	5	11.197717792056	2
0	6	11.197717792056	3
0	7	11.5	2
0	10	11.901228761643	3
0	11	11.901228761643	4
0	12	13	3
0	15	13.34698933523	4
0	16	13.34698933523	5
0	17	14.5	4
0	20	14.837774375716	5
0	21	14.837774375716	6
0	22	16	5
0	25	16.062464845634	6
0	26	16.062464845634	7
0	27	17.5	6
0	30	17.6446798798	7
0	31	17.6446798798	8
0	32	19	7
0	35	19.908054800816	8
0	36	19.908054800816	9
0	37	20.5	8
0	40	20.66068169765	9
0	41	20.66068169765	10
0	43	21.387456498895	11
0	44	21.387456498895	12
0	45	22	11
0	48	22.240479456289	12
0	49	22.240479456289	13
0	50	23.5	12
0	53	23.539550864873	13
0	54	23.539550864873	14
0	56	24.234536414935	15
0	57	24.234536414935	16
0	58	25	15
0	61	25.243430723056	16
0	62	25.243430723056	17
0	63	26.5	16
0	66	26.847421382656	17
0	67	26.847421382656	18
0	68	28	17
0	71	28.30120251317	18
0	72	28.30120251317	19
0	73	29.5	18
0	76	29.728448261848	19
0	77	29.728448261848	20
0	78	31	19
0	81	31.706993035574	20
0	82	31.706993035574	21
0	83	32.5	20
0	86	33.572210521438	21
0	87	33.572210521438	22
0	88	34	21
0	91	34.426437400263	22
0	92	34.426437400263	23
0	93	35.5	22
0	96	35.515221611907	23
0	97	35.515221611907	24
0	99	36.958416766571	25
0	100	36.958416766571	26
0	101	37	25
0	104	38.388288083339	26
0	105	38.388288083339	27
0	106	38.5	26
0	108	40	25
0	111	40.102583791843	26
0	112	40.102583791843	27
0	114	40.250668654194	28
0	115	40.250668654194	29
0	117	40.773896901254	30
0	118	40.773896901254	31
0	119	41.5	30
0	122	41.864872127717	31
0	123	41.864872127717	32
0	125	42.18912835884	33
0	126	42.18912835884	34
0	128	42.730208602463	35
0	129	42.730208602463	36
0	130	43	35
0	133	43.181308612039	36
0	134	43.181308612039	37
0	136	43.407287588775	38
0	137	43.407287588775	39
0	138	44.5	38
0	141	44.645619332556	39
0	142	44.645619332556	40
0	144	44.885549178746	41
0	145	44.885549178746	42
0	147	45.657574170334	43
0	148	45.657574170334	44
0	149	46	43
0	152	46.62574388062	44
0	153	46.62574388062	45
0	154	47.5	44
0	157	48.097302342518	45
0	158	48.097302342518	46
0	159	49	45
0	162	49.293003686007	46
0	163	49.293003686007	47
0	164	50.5	46
0	167	50.564448939932	47
0	168	50.564448939932	48
0	170	51.785511885955	49
0	171	51.785511885955	50
0	172	52	49
0	175	53.396159523296	50
0	176	53.396159523296	51
0	177	53.5	50
0	180	54.018327769697	51
0	181	54.018327769697	52
0	183	54.794967626264	53
0	184	54.794967626264	54
0	185	55	53
0	188	55.752051134601	54
0	189	55.752051134601	55
0	191	56.354703164283	56
0	192	56.354703164283	57
0	193	56.5	56
0	196	56.681648522483	57
0	197	56.681648522483	58
0	198	58	57
0	201	58.53372238757	58
0	202	58.53372238757	59
0	203	59.5	58
0	206	60.384918565335	59
0	207	60.384918565335	60
0	209	60.406904085832	61
0	210	60.406904085832	62
0	211	61	61
0	214	61.814312832632	62
0	215	61.814312832632	63
0	216	62.5	62
0	219	63.451420594295	63
0	220	63.451420594295	64
0	221	64	63
0	224	64.608295981795	64
0	225	64.608295981795	65
0	227	65.446388095658	66
0	228	65.446388095658	67
0	229	65.5	66
0	232	65.635662448808	67
0	233	65.635662448808	68
0	235	66.295229192804	69
0	236	66.295229192804	70
0	237	67	69
0	240	68.001532115249	70
0	241	68.001532115249	71
0	242	68.5	70
0	245	69.08362653874	71
0	246	69.08362653874	72
0	247	70	71
0	250	70.065817631687	72
0	251	70.065817631687	73
0	253	71.215318891025	74
0	254	71.215318891025	75
0	255	71.5	74
0	258	71.902152769114	75
0	259	71.902152769114	76
0	260	73	75
0	263	73.417578086763	76
0	264	73.417578086763	77
0	265	74.5	76
0	268	74.679942209096	77
0	269	74.679942209096	78
0	271	75.653264838654	79
0	272	75.653264838654	80
0	274	75.972729169265	81
0	275	75.972729169265	82
0	276	76	81
0	279	77.0060363079	82
0	280	77.0060363079	83
0	281	77.5	82
0	284	78.091818487144	83
0	285	78.091818487144	84
0	287	78.814189500005	85
0	288	78.814189500005	86
0	290	78.953619500102	87
0	291	78.953619500102	88
0	293	78.973542658528	89
0	294	78.973542658528	90
0	295	79	89
0	298	80.456895357536	90
0	299	80.456895357536	91
0	300	80.5	90
0	303	81.500175983502	91
0	304	81.500175983502	92
0	305	82	91
0	308	82.679993142892	92
0	309	82.679993142892	93
0	311	83.095644342949	94
0	312	83.095644342949	95
0	313	83.5	94
0	316	84.325033309576	95
0	317	84.325033309576	96
0	318	85	95
0	321	85.770007424072	96
0	322	85.770007424072	97
0	323	86.5	96
0	326	87.342391435887	97
0	327	87.342391435887	98
0	328	88	97
0	331	88.183340961359	98
0	332	88.183340961359	99
0	333	89.5	98
0	336	90.300227098039	99
0	337	90.300227098039	100
0	339	90.417097775721	101
0	340	90.417097775721	102
0	341	91	101
0	344	91.65119642454	102
0	345	91.65119642454	103
0	346	92.5	102
0	349	93.187268636275	103
0	350	93.187268636275	104
0	351	94	103
0	354	95.121400134204	104
0	355	95.121400134204	105
0	356	95.5	104
0	359	96.026411686478	105
0	360	96.026411686478	106
0	361	97	105
0	364	97.104438234245	106
0	365	97.104438234245	107
0	367	97.525750897431	108
0	368	97.525750897431	109
0	369	98.5	108
0	372	98.981977025943	109
0	373	98.981977025943	110
0	374	100	109
0	377	100.203536921148	110
0	378	100.203536921148	111
0	379	101.5	110
0	382	101.666498721774	111
0	383	101.666498721774	112
0	384	103	111
0	387	103.121499549447	112
0	388	103.121499549447	113
0	389	104.5	112
0	392	104.608063674592	113
0	393	104.608063674592	114
0	395	105.894865737734	115
0	396	105.894865737734	116
0	397	106	115
0	400	107.164825389746	116
0	401	107.164825389746	117
0	402	107.5	116
0	405	108.385652309099	117
0	406	108.385652309099	118
0	407	109	117
0	410	110.07521860053	118
0	411	110.07521860053	119
0	412	110.5	118
0	415	111.420119363126	119
0	416	111.420119363126	120
0	417	112	119
0	420	112.825689432257	120
0	421	112.825689432257	121
0	423	113.232945786785	122
0	424	113.232945786785	123
0	425	113.5	122
0	428	114.766811419497	123
0	429	114.766811419497	124
0	430	115	123
0	433	115.181575214858	124
0	434	115.181575214858	125
0	436	115.918306440599	126
0	437	115.918306440599	127
0	438	116.5	126
0	441	116.584874301623	127
0	442	116.584874301623	128
0	444	116.955542195612	129
0	445	116.955542195612	130
0	446	118	129
0	449	118.231826746037	130
0	450	118.231826746037	131
0	452	119.059230073483	132
0	453	119.059230073483	133
0	454	119.5	132
0	457	120.194080801539	133
0	458	120.194080801539	134
0	459	121	133
0	462	121.597951572849	134
0	463	121.597951572849	135
0	464	122.5	134
0	467	122.73388086646	135
0	468	122.73388086646	136
0	470	123.23162154237	137
0	471	123.23162154237	138
0	473	123.964507714921	139
0	474	123.964507714921	140
0	475	124	139
0	478	124.825112638293	140
0	479	124.825112638293	141
0	480	125.5	140
0	483	125.51997695787	141
0	484	125.51997695787	142
0	486	126.747492058822	143
0	487	126.747492058822	144
0	488	127	143
0	491	128.213756638189	144
0	492	128.213756638189	145
0	493	128.5	144
0	496	129.022760859804	145
0	497	129.022760859804	146
0	498	130	145
0	501	130.415626635526	146
0	502	130.415626635526	147
0	503	131.5	146
0	506	132.041384692391	147
0	507	132.041384692391	148
0	509	132.52193664043	149
0	510	132.52193664043	150
0	512	132.682853695079	151
0	513	132.682853695079	152
0	514	133	151
0	517	133.32446929067	152
0	518	133.32446929067	153
0	520	134.243830783092	154
0	521	134.243830783092	155
0	522	134.5	154
0	525	135.194726969121	155
0	526	135.194726969121	156
0	527	136	155
0	530	137.191064359442	156
0	531	137.191064359442	157
0	533	137.204055727769	158
0	534	137.204055727769	159
0	535	137.5	158
0	538	137.956679573257	159
0	539	137.956679573257	160
0	541	138.467015340139	161
0	542	138.467015340139	162
0	543	139	161
0	546	139.136254252439	162
0	547	139.136254252439	163
0	549	140.133439491787	164
0	550	140.133439491787	165
0	552	140.283958711534	166
0	553	140.283958711534	167
0	554	140.5	166
0	557	141.240113320029	167
0	558	141.240113320029	168
0	559	142	167
0	562	142.113572673135	168
0	563	142.113572673135	169
0	565	143.075959897608	170
0	566	143.075959897608	171
0	567	143.5	170
0	570	144.305502286899	171
0	571	144.305502286899	172
0	572	145	171
0	575	146.014206820189	172
0	576	146.014206820189	173
0	577	146.5	172
0	580	147.086040086763	173
0	581	147.086040086763	174
0	582	148	173
0	585	148.108785226623	174
0	586	148.108785226623	175
0	587	149.5	174
0	590	149.993793947277	175
0	591	149.993793947277	176
0	592	151	175
0	595	151.187245386575	176
0	596	151.187245386575	177
0	598	151.336777843417	178
0	599	151.336777843417	179
0	601	152.03209585329	180
0	602	152.03209585329	181
0	603	152.5	180
0	606	153.159197189374	181
0	607	153.159197189374	182
0	609	153.443336643092	183
0	610	153.443336643092	184
0	612	153.469125414551	185
0	613	153.469125414551	186
0	615	153.999585891651	187
0	616	153.999585891651	188
0	617	154	187
0	620	154.327662248913	188
0	621	154.327662248913	189
0	622	155.5	188
0	625	155.607560578588	189
0	626	155.607560578588	190
0	627	157	189
0	630	157.202002515435	190
0	631	157.202002515435	191
0	633	158.448683452511	192
0	634	158.448683452511	193
0	635	158.5	192
0	638	158.688600077398	193
0	639	158.688600077398	194
0	641	159.066539307384	195
0	642	159.066539307384	196
0	643	160	195
0	646	160.28787613764	196
0	647	160.28787613764	197
0	649	161.199440934975	198
0	650	161.199440934975	199
0	651	161.5	198
0	654	162.443932781049	199
0	655	162.443932781049	200
0	656	163	199
0	659	163.379995384659	200
0	660	163.379995384659	201
0	662	164.395836265518	202
0	663	164.395836265518	203
0	664	164.5	202
0	667	165.423840068719	203
0	668	165.423840068719	204
0	669	166	203
0	672	167.288671510574	204
0	673	167.288671510574	205
0	675	167.423343775216	206
0	676	167.423343775216	207
0	677	167.5	206
0	680	168.993263545023	207
0	681	168.993263545023	208
0	682	169	207
0	685	169.516596707051	208
0	686	169.516596707051	209
0	688	169.990667586112	210
0	689	169.990667586112	211
0	690	170.5	210
0	693	171.435492124669	211
0	694	171.435492124669	212
0	695	172	211
0	698	172.705726920216	212
0	699	172.705726920216	213
0	701	172.997369736752	214
0	702	172.997369736752	215
0	703	173.5	214
0	706	174.053745738959	215
0	707	174.053745738959	216
0	709	174.917187966845	217
0	710	174.917187966845	218
0	711	175	217
0	714	175.642568188241	218
0	715	175.642568188241	219
0	716	176.5	218
0	719	176.903025955189	219
0	720	176.903025955189	220
0	722	177.536781078109	221
0	723	177.536781078109	222
0	724	178	221
0	727	178.610696271841	222
0	728	178.610696271841	223
0	729	179.5	222
0	732	179.648906710344	223
0	733	179.648906710344	224
0	735	180.20095026832	225
0	736	180.20095026832	226
0	737	181	225
0	740	181.416490412526	226
0	741	181.416490412526	227
0	743	182.423701390855	228
0	744	182.423701390855	229
0	745	182.5	228
0	748	183.031253449289	229
0	749	183.031253449289	230
0	750	184	229
0	753	185.025688874309	230
0	754	185.025688874309	231
0	755	185.5	230
0	758	185.91003757336	231
0	759	185.91003757336	232
0	761	186.143663152607	233
0	762	186.143663152607	234
0	763	187	233
0	766	187.186019750358	234
0	767	187.186019750358	235
0	769	188.245132111732	236
0	770	188.245132111732	237
0	771	188.5	236
0	774	188.988807566576	237
0	775	188.988807566576	238
0	777	189.666932226785	239
0	778	189.666932226785	240
0	779	190	239
0	782	190.779073484024	240
0	783	190.779073484024	241
0	784	191.5	240
0	786	193	239
0	789	193.319960845468	240
0	790	193.319960845468	241
0	791	194.5	240
0	794	194.591977769961	241
0	795	194.591977769961	242
0	797	195.620482253923	243
0	798	195.620482253923	244
0	799	196	243
0	802	196.030896905176	244
0	803	196.030896905176	245
0	805	196.49150707574	246
0	806	196.49150707574	247
0	808	197.322976310777	248
0	809	197.322976310777	249
0	810	197.5	248
0	813	197.789395554604	249
0	814	197.789395554604	250
0	815	199	249
0	818	199.193506166877	250
0	819	199.193506166877	251
0	820	200.5	250
0	823	200.766508210863	251
0	824	200.766508210863	252
0	826	201.47089804741	253
0	827	201.47089804741	254
0	828	202	253
0	831	202.839005252978	254
0	832	202.839005252978	255
0	833	203.5	254
0	836	203.534295843785	255
0	837	203.534295843785	256
0	839	204.350137524515	257
0	840	204.350137524515	258
0	841	205	257
0	844	205.633706378672	258
0	845	205.633706378672	259
0	846	206.5	258
0	849	206.561849197313	259
0	850	206.561849197313	260
0	851	208	259
0	854	208.318925466398	260
0	855	208.318925466398	261
0	856	209.5	260
0	859	210.352528109055	261
0	860	210.352528109055	262
0	862	210.683578714191	263
0	863	210.683578714191	264
0	864	211	263
0	867	212.319817548353	264
0	868	212.319817548353	265
0	869	212.5	264
0	872	213.573046990833	265
0	873	213.573046990833	266
0	875	213.815708710225	267
0	876	213.815708710225	268
0	878	213.897310936055	269
0	879	213.897310936055	270
0	880	214	269
0	883	214.894608608539	270
0	884	214.894608608539	271
0	885	215.5	270
0	888	216.421898387093	271
0	889	216.421898387093	272
0	891	216.909808894466	273
0	892	216.909808894466	274
0	893	217	273
0	895	218.5	272
0	898	219.1608159	273
0	899	219.1608159	274
0	900	220	273
0	903	220.135178571844	274
0	904	220.135178571844	275
0	906	221.18177470934	276
0	907	221.18177470934	277
0	908	221.5	276
0	911	222.540645340799	277
0	912	222.540645340799	278
0	913	223	277
0	916	223.688357037005	278
0	917	223.688357037005	279
0	919	223.73761944231	280
0	920	223.73761944231	281
0	922	224.27472659315	282
0	923	224.27472659315	283
0	924	224.5	282
0	927	225.762745568371	283
0	928	225.762745568371	284
0	929	226	283
0	932	226.028312076446	284
0	933	226.028312076446	285
0	935	227.356803260756	286
0	936	227.356803260756	287
0	937	227.5	286
0	939	229	285
0	942	229.447890272418	286
0	943	229.447890272418	287
0	944	230.5	286
0	947	230.745886186377	287
0	948	230.745886186377	288
0	949	232	287
0	952	232.771516464566	288
0	953	232.771516464566	289
0	954	233.5	288
0	957	234.35866670842	289
0	958	234.35866670842	290
0	960	234.735292912987	291
0	961	234.735292912987	292
0	962	235	291
0	965	236.085251263646	292
0	966	236.085251263646	293
0	967	236.5	292
0	970	236.993107686023	293
0	971	236.993107686023	294
0	972	238	293
0	975	238.364843050305	294
0	976	238.364843050305	295
0	977	239.5	294
0	980	239.579215899885	295
0	981	239.579215899885	296
0	983	240.623699510222	297
0	984	240.623699510222	298
0	985	241	297
0	988	242.050524530215	298
0	989	242.050524530215	299
0	990	242.5	298
0	993	242.820292828368	299
0	994	242.820292828368	300
0	996	243.98758106818	301
0	997	243.98758106818	302
0	998	244	301
0	1001	245.116242137478	302
0	1002	245.116242137478	303
0	1003	245.5	302
0	1006	245.948552941185	303
0	1007	245.948552941185	304
0	1008	247	303
0	1011	247.363576175355	304
0	1012	247.363576175355	305
0	1014	247.456685783304	306
0	1015	247.456685783304	307
0	1017	248.218312337092	308
0	1018	248.218312337092	309
0	1020	248.474020869812	310
0	1021	248.474020869812	311
0	1022	248.5	310
0	1025	249.106396579188	311
0	1026	249.106396579188	312
0	1028	249.360469894693	313
0	1029	249.360469894693	314
0	1031	249.954897485994	315
0	1032	249.954897485994	316
0	1033	250	315
0	1036	250.822541886281	316
0	1037	250.822541886281	317
0	1039	251.473575880068	318
0	1040	251.473575880068	319
0	1041	251.5	318
0	1044	252.175860073723	319
0	1045	252.175860073723	320
0	1047	252.697054258524	321
0	1048	252.697054258524	322
0	1049	253	321
0	1052	253.019826283091	322
0	1053	253.019826283091	323
0	1055	253.793846811617	324
0	1056	253.793846811617	325
0	1057	254.5	324
0	1060	254.739465340302	325
0	1061	254.739465340302	326
0	1063	255.553561762252	327
0	1064	255.553561762252	328
0	1065	256	327
0	1068	256.685351662493	328
0	1069	256.685351662493	329
0	1070	257.5	328
0	1073	257.819644129178	329
0	1074	257.819644129178	330
0	1076	258.095379317382	331
0	1077	258.095379317382	332
0	1079	258.959072736631	333
0	1080	258.959072736631	334
0	1081	259	333
0	1084	259.527731163511	334
0	1085	259.527731163511	335
0	1086	260.5	334
0	1089	260.82442744497	335
0	1090	260.82442744497	336
0	1091	262	335
0	1094	262.037189173433	336
0	1095	262.037189173433	337
0	1096	263.5	336
0	1099	263.629271314489	337
0	1100	263.629271314489	338
0	1102	263.709066328548	339
0	1103	263.709066328548	340
0	1104	265	339
0	1107	265.50873440678	340
0	1108	265.50873440678	341
0	1110	265.983123208862	342
0	1111	265.983123208862	343
0	1112	266.5	342
0	1115	267.075093229996	343
0	1116	267.075093229996	344
0	1117	268	343
0	1120	268.57057802884	344
0	1121	268.57057802884	345
0	1122	269.5	344
0	1125	269.743943676901	345
0	1126	269.743943676901	346
0	1127	271	345
0	1130	271.114572366538	346
0	1131	271.114572366538	347
0	1133	271.324278332744	348
0	1134	271.324278332744	349
0	1136	272.142411142285	350
0	1137	272.142411142285	351
0	1138	272.5	350
0	1141	273.245387633445	351
0	1142	273.245387633445	352
0	1143	274	351
0	1146	274.134128834387	352
0	1147	274.134128834387	353
0	1149	274.434215428184	354
0	1150	274.434215428184	355
0	1151	275.5	354
0	1154	276.055434455228	355
0	1155	276.055434455228	356
0	1157	276.890902681863	357
0	1158	276.890902681863	358
0	1159	277	357
0	1161	278.5	356
0	1164	278.686313605533	357
0	1165	278.686313605533	358
0	1167	279.010334632857	359
0	1168	279.010334632857	360
0	1170	279.17038748066	361
0	1171	279.17038748066	362
0	1172	280	361
0	1175	280.243469795925	362
0	1176	280.243469795925	363
0	1178	281.351841692733	364
0	1179	281.351841692733	365
0	1180	281.5	364
0	1182	283	363
0	1185	283.0003649986	364
0	1186	283.0003649986	365
0	1188	284.328435324401	366
0	1189	284.328435324401	367
0	1190	284.5	366
0	1193	285.24361353775	367
0	1194	285.24361353775	368
0	1195	286	367
0	1198	286.560200768598	368
0	1199	286.560200768598	369
0	1200	287.5	368
0	1203	288.1238055958	369
0	1204	288.1238055958	370
0	1206	288.990621462226	371
0	1207	288.990621462226	372
0	1208	289	371
0	1211	289.902929623129	372
0	1212	289.902929623129	373
0	1213	290.5	372
0	1216	291.860419764927	373
0	1217	291.860419764927	374
0	1218	292	373
0	1220	293.5	372
0	1223	293.767637695375	373
0	1224	293.767637695375	374
0	1225	295	373
0	1228	295.07772097456	374
0	1229	295.07772097456	375
0	1231	295.922621106414	376
0	1232	295.922621106414	377
0	1233	296.5	376
0	1236	296.589543885189	377
0	1237	296.589543885189	378
0	1239	297.92460540042	379
0	1240	297.92460540042	380
0	1241	298	379
0	1244	298.887300056228	380
0	1245	298.887300056228	381
0	1247	299.474194792523	382
0	1248	299.474194792523	383
0	1249	299.5	382
0	1252	299.729466015206	383
0	1253	299.729466015206	384
0	1255	300.011837705098	385
0	1256	300.011837705098	386
0	1257	301	385
0	1260	301.373977047296	386
0	1261	301.373977047296	387
0	1262	302.5	386
0	1265	302.670007193734	387
0	1266	302.670007193734	388
0	1268	303.2280305165	389
0	1269	303.2280305165	390
0	1270	304	389
0	1273	304.847243819258	390
0	1274	304.847243819258	391
0	1275	305.5	390
0	1278	306.386402738009	391
0	1279	306.386402738009	392
0	1280	307	391
0	1283	307.403815229849	392
0	1284	307.403815229849	393
0	1285	308.5	392
0	1288	308.810929053528	393
0	1289	308.810929053528	394
0	1290	310	393
0	1293	310.575767598522	394
0	1294	310.575767598522	395
0	1295	311.5	394
0	1298	311.79859702194	395
0	1299	311.79859702194	396
0	1301	312.476306751119	397
0	1302	312.476306751119	398
0	1304	312.576212580779	399
0	1305	312.576212580779	400
0	1306	313	399
0	1309	313.797563058402	400
0	1310	313.797563058402	401
0	1311	314.5	400
0	1314	315.695829692424	401
0	1315	315.695829692424	402
0	1316	316	401
0	1319	316.110840445553	402
0	1320	316.110840445553	403
0	1322	317.321968228744	404
0	1323	317.321968228744	405
0	1324	317.5	404
0	1327	318.33427687779	405
0	1328	318.33427687779	406
0	1329	319	405
0	1332	319.490956601984	406
0	1333	319.490956601984	407
0	1334	320.5	406
0	1337	320.567871286369	407
0	1338	320.567871286369	408
0	1339	322	407
0	1342	322.293390634787	408
0	1343	322.293390634787	409
0	1345	322.979272301103	410
0	1346	322.979272301103	411
0	1348	323.431704386877	412
0	1349	323.431704386877	413
0	1350	323.5	412
0	1353	323.966929383723	413
0	1354	323.966929383723	414
0	1355	325	413
0	1358	325.484005284748	414
0	1359	325.484005284748	415
0	1361	326.274804024804	416
0	1362	326.274804024804	417
0	1363	326.5	416
0	1366	326.72312594508	417
0	1367	326.72312594508	418
0	1369	327.564874699101	419
0	1370	327.564874699101	420
0	1371	328	419
0	1374	329.091362935855	420
0	1375	329.091362935855	421
0	1376	329.5	420
0	1379	329.759247922685	421
0	1380	329.759247922685	422
0	1381	331	421
0	1384	331.475159153894	422
0	1385	331.475159153894	423
0	1386	332.5	422
0	1389	332.917482892573	423
0	1390	332.917482892573	424
0	1392	333.551588576772	425
0	1393	333.551588576772	426
0	1395	333.932069123415	427
0	1396	333.932069123415	428
0	1397	334	427
0	1399	335.5	426
0	1402	336.30669957679	427
0	1403	336.30669957679	428
0	1405	336.841842748456	429
0	1406	336.841842748456	430
0	1407	337	429
0	1410	337.720744897285	430
0	1411	337.720744897285	431
0	1412	338.5	430
0	1414	340	429
0	1417	340.041558891475	430
0	1418	340.041558891475	431
0	1420	341.378436190924	432
0	1421	341.378436190924	433
0	1422	341.5	432
0	1424	343	431
0	1427	343.178786434997	432
0	1428	343.178786434997	433
0	1430	344.480049415459	434
0	1431	344.480049415459	435
0	1432	344.5	434
0	1435	345.801653018711	435
0	1436	345.801653018711	436
0	1437	346	435
0	1439	347.5	434
0	1442	348.248984359699	435
0	1443	348.248984359699	436
0	1444	349	435
0	1447	350.145756005874	436
0	1448	350.145756005874	437
0	1449	350.5	436
0	1452	350.807281347867	437
0	1453	350.807281347867	438
0	1455	351.904605318797	439
0	1456	351.904605318797	440
0	1457	352	439
0	1460	352.21781556434	440
0	1461	352.21781556434	441
0	1463	352.856705502634	442
0	1464	352.856705502634	443
0	1465	353.5	442
0	1468	353.706428456227	443
0	1469	353.706428456227	444
0	1471	353.788386109686	445
0	1472	353.788386109686	446
0	1474	354.246226149747	447
0	1475	354.246226149747	448
0	1477	354.760529605428	449
0	1478	354.760529605428	450
0	1479	355	449
0	1482	355.162868929918	450
0	1483	355.162868929918	451
0	1485	355.789866689638	452
0	1486	355.789866689638	453
0	1487	356.5	452
0	1490	356.670526938987	453
0	1491	356.670526938987	454
0	1493	357.525536676145	455
0	1494	357.525536676145	456
0	1496	357.900330492581	457
0	1497	357.900330492581	458
0	1498	358	457
0	1501	359.347238962298	458
0	1502	359.347238962298	459
0	1503	359.5	458
0	1505	361	457
0	1508	361.162761745807	458
0	1509	361.162761745807	459
0	1511	361.765527911469	460
0	1512	361.765527911469	461
0	1514	362.09438097761	462
0	1515	362.09438097761	463
0	1516	362.5	462
0	1519	363.260983689396	463
0	1520	363.260983689396	464
0	1522	363.721439354579	465
0	1523	363.721439354579	466
0	1524	364	465
0	1526	365.5	464
0	1529	365.636687983172	465
0	1530	365.636687983172	466
0	1532	366.645341314239	467
0	1533	366.645341314239	468
0	1534	367	467
0	1537	367.342415307952	468
0	1538	367.342415307952	469
0	1540	368.411705235571	470
0	1541	368.411705235571	471
0	1542	368.5	470
0	1545	368.868614757029	471
0	1546	368.868614757029	472
0	1547	370	471
0	1550	370.176318003805	472
0	1551	370.176318003805	473
0	1553	371.022638302116	474
0	1554	371.022638302116	475
0	1555	371.5	474
0	1558	372.099407218702	475
0	1559	372.099407218702	476
0	1560	373	475
0	1563	373.399249383738	476
0	1564	373.399249383738	477
0	1565	374.5	476
0	1568	375.345570251323	477
0	1569	375.345570251323	478
0	1571	375.602586411406	479
0	1572	375.602586411406	480
0	1574	375.776015565005	481
0	1575	375.776015565005	482
0	1576	376	481
0	1579	376.613360299482	482
0	1580	376.613360299482	483
0	1582	377.397347697049	484
0	1583	377.397347697049	485
0	1584	377.5	484
0	1586	379	483
0	1589	379.17210350216	484
0	1590	379.17210350216	485
0	1592	380.06471969272	486
0	1593	380.06471969272	487
0	1595	380.49802397952	488
0	1596	380.49802397952	489
0	1597	380.5	488
0	1599	382	487
0	1602	382.074373440175	488
0	1603	382.074373440175	489
0	1605	383.18909270977	490
0	1606	383.18909270977	491
0	1608	383.405230686351	492
0	1609	383.405230686351	493
0	1610	383.5	492
0	1613	384.365616061124	493
0	1614	384.365616061124	494
0	1615	385	493
0	1618	385.501023871252	494
0	1619	385.501023871252	495
0	1621	385.69574494914	496
0	1622	385.69574494914	497
0	1624	386.316033689283	498
0	1625	386.316033689283	499
0	1626	386.5	498
0	1629	387.320202523212	499
0	1630	387.320202523212	500
0	1632	387.858772530884	501
0	1633	387.858772530884	502
0	1634	388	501
0	1637	389.195616451372	502
0	1638	389.195616451372	503
0	1639	389.5	502
0	1641	391	501
0	1644	391.109495955021	502
0	1645	391.109495955021	503
0	1646	392.5	502
0	1649	392.759274553182	503
0	1650	392.759274553182	504
0	1651	394	503
0	1654	394.561354799939	504
0	1655	394.561354799939	505
0	1656	395.5	504
0	1659	396.044785675113	505
0	1660	396.044785675113	506
0	1662	396.696253708842	507
0	1663	396.696253708842	508
0	1664	397	507
0	1667	398.028729909162	508
0	1668	398.028729909162	509
0	1670	398.27518762964	510
0	1671	398.27518762964	511
0	1672	398.5	510
0	1675	399.671864366704	511
0	1676	399.671864366704	512
0	1677	400	511
0	1680	401.403026072619	512
0	1681	401.403026072619	513
0	1682	401.5	512
0	1685	402.303641312237	513
0	1686	402.303641312237	514
0	1687	403	513
0	1690	403.317310133453	514
0	1691	403.317310133453	515
0	1693	404.168251447547	516
0	1694	404.168251447547	517
0	1695	404.5	516
0	1698	405.37068567792	517
0	1699	405.37068567792	518
0	1701	405.479883652109	519
0	1702	405.479883652109	520
0	1703	406	519
0	1706	407.175529052471	520
0	1707	407.175529052471	521
0	1708	407.5	520
0	1711	408.388459395457	521
0	1712	408.388459395457	522
0	1713	409	521
0	1716	409.932261998431	522
0	1717	409.932261998431	523
0	1718	410.5	522
0	1720	412	521
0	1723	412.128351437018	522
0	1724	412.128351437018	523
0	1726	412.658699471325	524
0	1727	412.658699471325	525
0	1728	413.5	524
0	1730	415	523
0	1733	415.028076091219	524
0	1734	415.028076091219	525
0	1736	415.412573215056	526
0	1737	415.412573215056	527
0	1738	416.5	526
0	1741	416.660158831163	527
0	1742	416.660158831163	528
0	1744	417.716070808917	529
0	1745	417.716070808917	530
0	1746	418	529
0	1749	418.898287587974	530
0	1750	418.898287587974	531
0	1751	419.5	530
0	1754	420.158058025201	531
0	1755	420.158058025201	532
0	1756	421	531
0	1759	421.144180846201	532
0	1760	421.144180846201	533
0	1762	421.591398782322	534
0	1763	421.591398782322	535
0	1765	422.465946648063	536
0	1766	422.465946648063	537
0	1767	422.5	536
0	1769	424	535
0	1772	424.528524592066	536
0	1773	424.528524592066	537
0	1774	425.5	536
0	1777	426.292847665728	537
0	1778	426.292847665728	538
0	1780	426.416985219215	539
0	1781	426.416985219215	540
0	1783	426.828878539517	541
0	1784	426.828878539517	542
0	1785	427	541
0	1788	428.431417391143	542
0	1789	428.431417391143	543
0	1790	428.5	542
0	1793	429.536759433399	543
0	1794	429.536759433399	544
0	1795	430	543
0	1798	430.534789371464	544
0	1799	430.534789371464	545
0	1800	431.5	544
0	1803	431.927000230815	545
0	1804	431.927000230815	546
0	1806	432.074763278955	547
0	1807	432.074763278955	548
0	1809	432.687121008554	549
0	1810	432.687121008554	550
0	1811	433	549
0	1814	433.968943492508	550
0	1815	433.968943492508	551
0	1816	434.5	550
0	1819	435.685907661286	551
0	1820	435.685907661286	552
0	1821	436	551
0	1824	436.81909999363	552
0	1825	436.81909999363	553
0	1826	437.5	552
0	1829	438.362948672931	553
0	1830	438.362948672931	554
0	1831	439	553
0	1834	439.290947618505	554
0	1835	439.290947618505	555
0	1837	440.089602329247	556
0	1838	440.089602329247	557
0	1839	440.5	556
0	1842	441.482063221993	557
0	1843	441.482063221993	558
0	1844	442	557
0	1847	443.220899353268	558
0	1848	443.220899353268	559
0	1849	443.5	558
0	1852	444.257113108645	559
0	1853	444.257113108645	560
0	1854	445	559
0	1857	446.054114194592	560
0	1858	446.054114194592	561
0	1859	446.5	560
0	1862	446.856721238752	561
0	1863	446.856721238752	562
0	1865	447.47198900464	563
0	1866	447.47198900464	564
0	1867	448	563
0	1870	448.473823646412	564
0	1871	448.473823646412	565
0	1872	449.5	564
0	1875	449.946405589662	565
0	1876	449.946405589662	566
0	1877	451	565
0	1880	451.175772288504	566
0	1881	451.175772288504	567
0	1882	452.5	566
0	1885	452.575006852801	567
0	1886	452.575006852801	568
0	1888	452.838374608533	569
0	1889	452.838374608533	570
0	1891	453.077182396175	571
0	1892	453.077182396175	572
0	1893	454	571
0	1896	454.525223894927	572
0	1897	454.525223894927	573
0	1898	455.5	572
0	1901	455.740742202698	573
0	1902	455.740742202698	574
0	1903	457	573
0	1906	457.459152002033	574
0	1907	457.459152002033	575
0	1908	458.5	574
0	1911	458.640416861026	575
0	1912	458.640416861026	576
0	1914	458.876771124617	577
0	1915	458.876771124617	578
0	1917	459.257920639465	579
0	1918	459.257920639465	580
0	1919	460	579
0	1922	460.728862441549	580
0	1923	460.728862441549	581
0	1925	461.412328903924	582
0	1926	461.412328903924	583
0	1927	461.5	582
0	1930	462.883801216073	583
0	1931	462.883801216073	584
0	1932	463	583
0	1935	463.82116179554	584