version 3
run MMc-13-20221127-11:38:40-7588
attr configname MMc
attr datetime 20221127-11:38:40
attr datetimef 20221127-113840
attr experiment MMc
attr inifile omnetpp.ini
attr iterationvars "$mean=uniform(0.5s, 1.5s), $dev=0.5*(uniform(0.5s, 1.5s)), $time=1.5, $num=1, $0=45732, $1=35463, $2=67563"
attr iterationvarsd mean=uniform(0.5s,_1.5s)/dev=0.5#2a(uniform(0.5s,_1.5s))/time=1.5/num=1/45732/35463/67563
attr iterationvarsf mean=uniform(0.5s,_1.5s),dev=0.5#2a(uniform(0.5s,_1.5s)),time=1.5,num=1,45732,35463,67563-
attr measurement "$mean=uniform(0.5s, 1.5s), $dev=0.5*(uniform(0.5s, 1.5s)), $time=1.5, $num=1, $0=45732, $1=35463, $2=67563"
attr network MMc
attr processid 7588
attr repetition 1
attr replication #1
attr resultdir results
attr runnumber 13
attr seedset 13
itervar dev "0.5*(uniform(0.5s, 1.5s))"
itervar mean "uniform(0.5s, 1.5s)"
itervar num 1
itervar time 1.5
config description "MMc module"
config network MMc
config MMc.source.interArrivalTime "truncnormal(uniform(0.5s, 1.5s), 0.5*(uniform(0.5s, 1.5s)))"
config MMc.mmc.serviceTime 1.5s
config MMc.mmc.c 1
config MMc.mmc.capacity 10000
config record-eventlog false
config **.scalar-recording true
config **.vector-recording true
config repeat 4
config seed-1-mt 45732
config seed-2-mt 35463
config seed-3-mt 67563
config output-vector-file MMc-1-1.5-results/1.vec
config output-scalar-file MMc-1-1.5-results/1.sca

vector 0 MMc.mmc queueLength:vector ETV
attr interpolationmode none
attr recordingmode vector
attr title "queue length"
vector 1 MMc.mmc util:vector ETV
attr interpolationmode none
attr recordingmode vector
attr title resources
0	0	0	0
0	3	10	1
0	4	11.5	0
0	7	11.536506740222	1
0	8	11.536506740222	2
0	9	13	1
0	12	13.639836420872	2
0	13	13.639836420872	3
0	14	14.5	2
0	17	15.119658710088	3
0	18	15.119658710088	4
0	19	16	3
0	22	16.490057917354	4
0	23	16.490057917354	5
0	25	17.249664071366	6
0	26	17.249664071366	7
0	27	17.5	6
0	30	18.190212199633	7
0	31	18.190212199633	8
0	33	18.287933642511	9
0	34	18.287933642511	10
0	35	19	9
0	38	19.058258260474	10
0	39	19.058258260474	11
0	41	19.775766306966	12
0	42	19.775766306966	13
0	44	19.880722636705	14
0	45	19.880722636705	15
0	46	20.5	14
0	49	21.210839843605	15
0	50	21.210839843605	16
0	52	21.573656600004	17
0	53	21.573656600004	18
0	54	22	17
0	57	22.956046325769	18
0	58	22.956046325769	19
0	59	23.5	18
0	62	24.510518269433	19
0	63	24.510518269433	20
0	64	25	19
0	67	25.088213312464	20
0	68	25.088213312464	21
0	70	26.085146361456	22
0	71	26.085146361456	23
0	72	26.5	22
0	75	26.680607420822	23
0	76	26.680607420822	24
0	78	27.402586832433	25
0	79	27.402586832433	26
0	81	27.831752919024	27
0	82	27.831752919024	28
0	83	28	27
0	86	28.305142759356	28
0	87	28.305142759356	29
0	89	29.318981868627	30
0	90	29.318981868627	31
0	92	29.438751191568	32
0	93	29.438751191568	33
0	94	29.5	32
0	97	30.180393078469	33
0	98	30.180393078469	34
0	100	30.902492869056	35
0	101	30.902492869056	36
0	102	31	35
0	105	32.301483792574	36
0	106	32.301483792574	37
0	107	32.5	36
0	110	32.942839437883	37
0	111	32.942839437883	38
0	113	33.951601779857	39
0	114	33.951601779857	40
0	115	34	39
0	118	34.213720169466	40
0	119	34.213720169466	41
0	121	34.694958393536	42
0	122	34.694958393536	43
0	123	35.5	42
0	126	35.885621187234	43
0	127	35.885621187234	44
0	128	37	43
0	131	37.363818104289	44
0	132	37.363818104289	45
0	134	38.493877260424	46
0	135	38.493877260424	47
0	136	38.5	46
0	138	40	45
0	141	40.033951925604	46
0	142	40.033951925604	47
0	144	40.328018001262	48
0	145	40.328018001262	49
0	147	41.201596856166	50
0	148	41.201596856166	51
0	149	41.5	50
0	152	41.703249515454	51
0	153	41.703249515454	52
0	155	42.884344759489	53
0	156	42.884344759489	54
0	157	43	53
0	160	43.106390220659	54
0	161	43.106390220659	55
0	163	44.291070648359	56
0	164	44.291070648359	57
0	165	44.5	56
0	168	45.998782923007	57
0	169	45.998782923007	58
0	170	46	57
0	173	47.484778653724	58
0	174	47.484778653724	59
0	175	47.5	58
0	178	47.959097564279	59
0	179	47.959097564279	60
0	180	49	59
0	183	49.711682313114	60
0	184	49.711682313114	61
0	186	50.324616551234	62
0	187	50.324616551234	63
0	188	50.5	62
0	191	51.195197190855	63
0	192	51.195197190855	64
0	193	52	63
0	196	53.065621159009	64
0	197	53.065621159009	65
0	198	53.5	64
0	201	54.224240246923	65
0	202	54.224240246923	66
0	203	55	65
0	206	55.205407514883	66
0	207	55.205407514883	67
0	209	56.173747549387	68
0	210	56.173747549387	69
0	211	56.5	68
0	214	56.999597938994	69
0	215	56.999597938994	70
0	216	58	69
0	219	58.163346351069	70
0	220	58.163346351069	71
0	222	58.543200453338	72
0	223	58.543200453338	73
0	225	59.412813593818	74
0	226	59.412813593818	75
0	227	59.5	74
0	230	60.946072220299	75
0	231	60.946072220299	76
0	232	61	75
0	235	62.356701180575	76
0	236	62.356701180575	77
0	237	62.5	76
0	239	64	75
0	242	64.853048774159	76
0	243	64.853048774159	77
0	244	65.5	76
0	247	65.589336210816	77
0	248	65.589336210816	78
0	250	66.09253878114	79
0	251	66.09253878114	80
0	252	67	79
0	255	67.501949522826	80
0	256	67.501949522826	81
0	257	68.5	80
0	260	68.591494311179	81
0	261	68.591494311179	82
0	262	70	81
0	265	70.284814070224	82
0	266	70.284814070224	83
0	268	70.767916633018	84
0	269	70.767916633018	85
0	271	71.250766709869	86
0	272	71.250766709869	87
0	273	71.5	86
0	276	72.845088151957	87
0	277	72.845088151957	88
0	278	73	87
0	281	73.567151213841	88
0	282	73.567151213841	89
0	284	73.625561764728	90
0	285	73.625561764728	91
0	286	74.5	90
0	289	74.968509694225	91
0	290	74.968509694225	92
0	292	75.686900918697	93
0	293	75.686900918697	94
0	294	76	93
0	297	76.161817672491	94
0	298	76.161817672491	95
0	300	77.257896637098	96
0	301	77.257896637098	97
0	302	77.5	96
0	305	78.30566164528	97
0	306	78.30566164528	98
0	307	79	97
0	310	79.716927835921	98
0	311	79.716927835921	99
0	313	80.466772824899	100
0	314	80.466772824899	101
0	315	80.5	100
0	318	80.735251504515	101
0	319	80.735251504515	102
0	321	81.533313972628	103
0	322	81.533313972628	104
0	323	82	103
0	326	83.386937668587	104
0	327	83.386937668587	105
0	328	83.5	104
0	331	83.835864637811	105
0	332	83.835864637811	106
0	333	85	105
0	336	85.853591298302	106
0	337	85.853591298302	107
0	338	86.5	106
0	341	87.078214372149	107
0	342	87.078214372149	108
0	343	88	107
0	346	88.049233360329	108
0	347	88.049233360329	109
0	348	89.5	108
0	351	90.206645260038	109
0	352	90.206645260038	110
0	354	90.798254358498	111
0	355	90.798254358498	112
0	356	91	111
0	359	91.921004949517	112
0	360	91.921004949517	113
0	361	92.5	112
0	364	92.764764810007	113
0	365	92.764764810007	114
0	366	94	113
0	369	94.313489611759	114
0	370	94.313489611759	115
0	371	95.5	114
0	374	95.783324449331	115
0	375	95.783324449331	116
0	377	96.771316200758	117
0	378	96.771316200758	118
0	379	97	117
0	381	98.5	116
0	384	98.601319289193	117
0	385	98.601319289193	118
0	386	100	117
0	389	100.120661745815	118
0	390	100.120661745815	119
0	392	100.993535687543	120
0	393	100.993535687543	121
0	395	101.490132980764	122
0	396	101.490132980764	123
0	397	101.5	122
0	400	102.484953562493	123
0	401	102.484953562493	124
0	402	103	123
0	405	103.867205409277	124
0	406	103.867205409277	125
0	407	104.5	124
0	410	104.581126791092	125
0	411	104.581126791092	126
0	413	105.732593327119	127
0	414	105.732593327119	128
0	416	105.924903959477	129
0	417	105.924903959477	130
0	418	106	129
0	421	107.014237632892	130
0	422	107.014237632892	131
0	423	107.5	130
0	426	108.695513104948	131
0	427	108.695513104948	132
0	428	109	131
0	431	109.205971517354	132
0	432	109.205971517354	133
0	434	109.396756562702	134
0	435	109.396756562702	135
0	436	110.5	134
0	439	110.949032862146	135
0	440	110.949032862146	136
0	442	111.831975434298	137
0	443	111.831975434298	138
0	444	112	137
0	447	113.022257672884	138
0	448	113.022257672884	139
0	449	113.5	138
0	452	114.059633849458	139
0	453	114.059633849458	140
0	455	114.651280021346	141
0	456	114.651280021346	142
0	457	115	141
0	460	115.826729258069	142
0	461	115.826729258069	143
0	462	116.5	142
0	465	116.683439046237	143
0	466	116.683439046237	144
0	468	117.780366981249	145
0	469	117.780366981249	146
0	470	118	145
0	473	118.544579429898	146
0	474	118.544579429898	147
0	475	119.5	146
0	478	120.187544361547	147
0	479	120.187544361547	148
0	481	120.571526978129	149
0	482	120.571526978129	150
0	483	121	149
0	486	121.501949032638	150
0	487	121.501949032638	151
0	489	122.162248537846	152
0	490	122.162248537846	153
0	491	122.5	152
0	494	123.471481606539	153
0	495	123.471481606539	154
0	496	124	153
0	499	124.146169525279	154
0	500	124.146169525279	155
0	502	124.714933421909	156
0	503	124.714933421909	157
0	504	125.5	156
0	507	126.190307987189	157
0	508	126.190307987189	158
0	510	126.652383202466	159
0	511	126.652383202466	160
0	512	127	159
0	515	127.591646798113	160
0	516	127.591646798113	161
0	518	127.626783704663	162
0	519	127.626783704663	163
0	520	128.5	162
0	523	129.239406787345	163
0	524	129.239406787345	164
0	525	130	163
0	528	130.688961944212	164
0	529	130.688961944212	165
0	530	131.5	164
0	533	131.775079831198	165
0	534	131.775079831198	166
0	535	133	165
0	538	133.594211851052	166
0	539	133.594211851052	167
0	540	134.5	166
0	543	135.131293643196	167
0	544	135.131293643196	168
0	545	136	167
0	548	136.340079901185	168
0	549	136.340079901185	169
0	551	137.301059159488	170
0	552	137.301059159488	171
0	553	137.5	170
0	556	138.543819124844	171
0	557	138.543819124844	172
0	559	138.651324387174	173
0	560	138.651324387174	174
0	561	139	173
0	563	140.5	172
0	566	141.225245641276	173
0	567	141.225245641276	174
0	568	142	173
0	571	142.412490914902	174
0	572	142.412490914902	175
0	573	143.5	174
0	576	143.704312423864	175
0	577	143.704312423864	176
0	579	144.892654701448	177
0	580	144.892654701448	178
0	581	145	177
0	584	145.76903942664	178
0	585	145.76903942664	179
0	586	146.5	178
0	589	146.791023217869	179
0	590	146.791023217869	180
0	592	147.911932457726	181
0	593	147.911932457726	182
0	594	148	181
0	597	149.241399670823	182
0	598	149.241399670823	183
0	599	149.5	182
0	602	149.75237778023	183
0	603	149.75237778023	184
0	605	150.731335597587	185
0	606	150.731335597587	186
0	607	151	185
0	610	151.533978835777	186
0	611	151.533978835777	187
0	613	152.262602811636	188
0	614	152.262602811636	189
0	615	152.5	188
0	618	152.751257413163	189
0	619	152.751257413163	190
0	620	154	189
0	623	154.555227334449	190
0	624	154.555227334449	191
0	625	155.5	190
0	628	155.94165902823	191
0	629	155.94165902823	192
0	631	156.87005750842	193
0	632	156.87005750842	194
0	633	157	193
0	636	157.601486510444	194
0	637	157.601486510444	195
0	638	158.5	194
0	641	158.760536265629	195
0	642	158.760536265629	196
0	643	160	195
0	646	160.298457681863	196
0	647	160.298457681863	197
0	648	161.5	196
0	651	162.838367508933	197
0	652	162.838367508933	198
0	653	163	197
0	656	163.653796888436	198
0	657	163.653796888436	199
0	659	164.434364151363	200
0	660	164.434364151363	201
0	661	164.5	200
0	664	165.164278546892	201
0	665	165.164278546892	202
0	666	166	201
0	669	166.938354798792	202
0	670	166.938354798792	203
0	671	167.5	202
0	674	168.443254398748	203
0	675	168.443254398748	204
0	677	168.856392240473	205
0	678	168.856392240473	206
0	679	169	205
0	682	169.673660048311	206
0	683	169.673660048311	207
0	684	170.5	206
0	687	170.879164187015	207
0	688	170.879164187015	208
0	689	172	207
0	692	172.989050759123	208
0	693	172.989050759123	209
0	694	173.5	208
0	697	173.642424497352	209
0	698	173.642424497352	210
0	700	174.182656556026	211
0	701	174.182656556026	212
0	702	175	211
0	705	175.055949529624	212
0	706	175.055949529624	213
0	708	176.123381262916	214
0	709	176.123381262916	215
0	710	176.5	214
0	713	177.113470763218	215
0	714	177.113470763218	216
0	715	178	215
0	718	178.540324737764	216
0	719	178.540324737764	217
0	720	179.5	216
0	723	179.630024930559	217
0	724	179.630024930559	218
0	725	181	217
0	728	181.278884954391	218
0	729	181.278884954391	219
0	731	181.281708069923	220
0	732	181.281708069923	221
0	734	181.980073953999	222
0	735	181.980073953999	223
0	736	182.5	222
0	739	182.85081960346	223
0	740	182.85081960346	224
0	741	184	223
0	744	184.181179944403	224
0	745	184.181179944403	225
0	747	185.352035788949	226
0	748	185.352035788949	227
0	749	185.5	226
0	752	186.661131075891	227
0	753	186.661131075891	228
0	754	187	227
0	757	187.146968457755	228
0	758	187.146968457755	229
0	759	188.5	228
0	762	188.593400481918	229
0	763	188.593400481918	230
0	765	189.480719574474	231
0	766	189.480719574474	232
0	767	190	231
0	770	190.570823918726	232
0	771	190.570823918726	233
0	773	191.128118438553	234
0	774	191.128118438553	235
0	775	191.5	234
0	778	191.948830313368	235
0	779	191.948830313368	236
0	780	193	235
0	783	193.687644043129	236
0	784	193.687644043129	237
0	785	194.5	236
0	788	194.520036472786	237
0	789	194.520036472786	238
0	790	196	237
0	793	196.225474295838	238
0	794	196.225474295838	239
0	795	197.5	238
0	798	197.764176101676	239
0	799	197.764176101676	240
0	800	199	239
0	803	199.679551033339	240
0	804	199.679551033339	241
0	806	200.480230925739	242
0	807	200.480230925739	243
0	808	200.5	242
0	811	201.685358360079	243
0	812	201.685358360079	244
0	813	202	243
0	816	202.487854321236	244
0	817	202.487854321236	245
0	818	203.5	244
0	821	204.129303361492	245
0	822	204.129303361492	246
0	823	205	245
0	825	206.5	244
0	828	206.536803964262	245
0	829	206.536803964262	246
0	831	206.975346841078	247
0	832	206.975346841078	248
0	834	207.180486905767	249
0	835	207.180486905767	250
0	837	207.966022286027	251
0	838	207.966022286027	252
0	839	208	251
0	841	209.5	250
0	844	210.984112134475	251
0	845	210.984112134475	252
0	846	211	251
0	849	211.54629798895	252
0	850	211.54629798895	253
0	852	212.166359917057	254
0	853	212.166359917057	255
0	854	212.5	254
0	857	213.000635073695	255
0	858	213.000635073695	256
0	860	213.948724967795	257
0	861	213.948724967795	258
0	862	214	257
0	865	214.553476232942	258
0	866	214.553476232942	259
0	867	215.5	258
0	870	215.925497463984	259
0	871	215.925497463984	260
0	872	217	259
0	875	217.828214810851	260
0	876	217.828214810851	261
0	877	218.5	260
0	880	218.861344091004	261
0	881	218.861344091004	262
0	882	220	261
0	885	220.014767401011	262
0	886	220.014767401011	263
0	888	220.103762264134	264
0	889	220.103762264134	265
0	891	221.141302680266	266
0	892	221.141302680266	267
0	893	221.5	266
0	896	222.345756071829	267
0	897	222.345756071829	268
0	898	223	267
0	900	224.5	266
0	903	224.750737639066	267
0	904	224.750737639066	268
0	905	226	267
0	908	226.390536381351	268
0	909	226.390536381351	269
0	911	227.255349840878	270
0	912	227.255349840878	271
0	913	227.5	270
0	916	228.341943830193	271
0	917	228.341943830193	272
0	918	229	271
0	921	229.977728358453	272
0	922	229.977728358453	273
0	923	230.5	272
0	926	231.340627948592	273
0	927	231.340627948592	274
0	929	231.87628534699	275
0	930	231.87628534699	276
0	931	232	275
0	934	232.681391471032	276
0	935	232.681391471032	277
0	936	233.5	276
0	939	233.552304680159	277
0	940	233.552304680159	278
0	941	235	277
0	944	235.610474850841	278
0	945	235.610474850841	279
0	946	236.5	278
0	949	237.609296024446	279
0	950	237.609296024446	280
0	951	238	279
0	954	238.060989101365	280
0	955	238.060989101365	281
0	956	239.5	280
0	959	239.975777895681	281
0	960	239.975777895681	282
0	962	240.662450993935	283
0	963	240.662450993935	284
0	964	241	283
0	967	241.436279250282	284
0	968	241.436279250282	285
0	970	242.263552131085	286
0	971	242.263552131085	287
0	972	242.5	286
0	975	243.756288558135	287
0	976	243.756288558135	288
0	977	244	287
0	980	244.67561756715	288
0	981	244.67561756715	289
0	982	245.5	288
0	985	245.601413948559	289
0	986	245.601413948559	290
0	988	246.982002406531	291
0	989	246.982002406531	292
0	990	247	291
0	992	248.5	290
0	995	249.265342951769	291
0	996	249.265342951769	292
0	997	250	291
0	1000	250.404912010994	292
0	1001	250.404912010994	293
0	1002	251.5	292
0	1004	253	291
0	1007	253.047209747419	292
0	1008	253.047209747419	293
0	1010	254.137021805166	294
0	1011	254.137021805166	295
0	1012	254.5	294
0	1015	254.82604941108	295
0	1016	254.82604941108	296
0	1018	255.734433564209	297
0	1019	255.734433564209	298
0	1020	256	297
0	1023	256.585348525046	298
0	1024	256.585348525046	299
0	1025	257.5	298
0	1028	257.669793325002	299
0	1029	257.669793325002	300
0	1031	258.847618786646	301
0	1032	258.847618786646	302
0	1033	259	301
0	1036	259.317514618639	302
0	1037	259.317514618639	303
0	1038	260.5	302
0	1041	261.036810228402	303
0	1042	261.036810228402	304
0	1044	261.685000025034	305
0	1045	261.685000025034	306
0	1046	262	305
0	1049	262.830324805088	306
0	1050	262.830324805088	307
0	1051	263.5	306
0	1053	265	305
0	1056	265.354929910049	306
0	1057	265.354929910049	307
0	1059	266.435460244989	308
0	1060	266.435460244989	309
0	1061	266.5	308
0	1063	268	307
0	1066	268.080432206157	308
0	1067	268.080432206157	309
0	1069	268.978967655095	310
0	1070	268.978967655095	311
0	1071	269.5	310
0	1074	270.243279079722	311
0	1075	270.243279079722	312
0	1076	271	311
0	1079	271.782216481767	312
0	1080	271.782216481767	313
0	1081	272.5	312
0	1084	272.955449746523	313
0	1085	272.955449746523	314
0	1087	273.055264565612	315
0	1088	273.055264565612	316
0	1090	273.062974647616	317
0	1091	273.062974647616	318
0	1093	273.603863253994	319
0	1094	273.603863253994	320
0	1095	274	319
0	1098	274.838616305848	320
0	1099	274.838616305848	321
0	1100	275.5	320
0	1103	275.864819899309	321
0	1104	275.864819899309	322
0	1106	276.877255144456	323
0	1107	276.877255144456	324
0	1109	276.987452953518	325
0	1110	276.987452953518	326
0	1111	277	325
0	1114	277.98010754458	326
0	1115	277.98010754458	327
0	1116	278.5	326
0	1119	279.307528368367	327
0	1120	279.307528368367	328
0	1121	280	327
0	1124	280.400414614883	328
0	1125	280.400414614883	329
0	1127	280.992670822251	330
0	1128	280.992670822251	331
0	1129	281.5	330
0	1132	282.503879819234	331
0	1133	282.503879819234	332
0	1134	283	331
0	1137	283.560275579081	332
0	1138	283.560275579081	333
0	1139	284.5	332
0	1142	284.735407774044	333
0	1143	284.735407774044	334
0	1145	285.605095151945	335
0	1146	285.605095151945	336
0	1147	286	335
0	1150	287.236260756437	336
0	1151	287.236260756437	337
0	1152	287.5	336
0	1154	289	335
0	1157	289.175495601812	336
0	1158	289.175495601812	337
0	1160	289.637213896341	338
0	1161	289.637213896341	339
0	1162	290.5	338
0	1165	290.738245761979	339
0	1166	290.738245761979	340
0	1167	292	339
0	1170	292.161206945146	340
0	1171	292.161206945146	341
0	1173	292.924445776284	342
0	1174	292.924445776284	343
0	1175	293.5	342
0	1178	293.752358286564	343
0	1179	293.752358286564	344
0	1181	293.998726387447	345
0	1182	293.998726387447	346
0	1184	294.595818906524	347
0	1185	294.595818906524	348
0	1186	295	347
0	1189	296.141881815278	348
0	1190	296.141881815278	349
0	1191	296.5	348
0	1194	296.918143264093	349
0	1195	296.918143264093	350
0	1197	297.468967826791	351
0	1198	297.468967826791	352
0	1199	298	351
0	1202	298.78407238199	352
0	1203	298.78407238199	353
0	1204	299.5	352
0	1207	299.693653983059	353
0	1208	299.693653983059	354
0	1209	301	353
0	1212	301.405875003304	354
0	1213	301.405875003304	355
0	1214	302.5	354
0	1217	303.296765303046	355
0	1218	303.296765303046	356
0	1219	304	355
0	1222	304.177911525521	356
0	1223	304.177911525521	357
0	1225	305.411284161915	358
0	1226	305.411284161915	359
0	1227	305.5	358
0	1229	307	357
0	1232	307.415909407619	358
0	1233	307.415909407619	359
0	1235	308.27343821765	360
0	1236	308.27343821765	361
0	1237	308.5	360
0	1240	309.082466520262	361
0	1241	309.082466520262	362
0	1243	309.452855640053	363
0	1244	309.452855640053	364
0	1246	309.750049125015	365
0	1247	309.750049125015	366
0	1248	310	365
0	1251	310.980142454309	366
0	1252	310.980142454309	367
0	1254	311.218434412965	368
0	1255	311.218434412965	369
0	1256	311.5	368
0	1259	311.647015724491	369
0	1260	311.647015724491	370
0	1262	312.960453339784	371
0	1263	312.960453339784	372
0	1264	313	371
0	1267	314.250481629427	372
0	1268	314.250481629427	373
0	1269	314.5	372
0	1272	315.234351422691	373
0	1273	315.234351422691	374
0	1274	316	373
0	1277	316.479175163383	374
0	1278	316.479175163383	375
0	1280	316.861528550495	376
0	1281	316.861528550495	377
0	1282	317.5	376
0	1285	318.840513306711	377
0	1286	318.840513306711	378
0	1287	319	377
0	1290	319.373451760158	378
0	1291	319.373451760158	379
0	1293	320.160313293175	380
0	1294	320.160313293175	381
0	1295	320.5	380
0	1298	321.979933969251	381
0	1299	321.979933969251	382
0	1300	322	381
0	1302	323.5	380
0	1305	323.559716289323	381
0	1306	323.559716289323	382
0	1308	324.239115268528	383
0	1309	324.239115268528	384
0	1311	324.353286679763	385
0	1312	324.353286679763	386
0	1313	325	385
0	1316	325.140943227769	386
0	1317	325.140943227769	387
0	1319	325.587234185296	388
0	1320	325.587234185296	389
0	1321	326.5	388
0	1324	326.778834968873	389
0	1325	326.778834968873	390
0	1326	328	389
0	1329	328.598458039145	390
0	1330	328.598458039145	391
0	1332	328.647495195482	392
0	1333	328.647495195482	393
0	1334	329.5	392
0	1337	329.896682672138	393
0	1338	329.896682672138	394
0	1339	331	393
0	1342	331.650669953479	394
0	1343	331.650669953479	395
0	1344	332.5	394
0	1347	333.208364420146	395
0	1348	333.208364420146	396
0	1350	333.89501224808	397
0	1351	333.89501224808	398
0	1352	334	397
0	1354	335.5	396
0	1357	335.686145201838	397
0	1358	335.686145201838	398
0	1359	337	397
0	1362	337.272916678501	398
0	1363	337.272916678501	399
0	1365	337.890770684632	400
0	1366	337.890770684632	401
0	1368	337.974517185142	402
0	1369	337.974517185142	403
0	1370	338.5	402
0	1373	339.629998538094	403
0	1374	339.629998538094	404
0	1375	340	403
0	1378	340.632736937856	404
0	1379	340.632736937856	405
0	1381	341.449783395035	406
0	1382	341.449783395035	407
0	1383	341.5	406
0	1386	342.350709518083	407
0	1387	342.350709518083	408
0	1388	343	407
0	1391	343.379704206717	408
0	1392	343.379704206717	409
0	1394	344.330445486473	410
0	1395	344.330445486473	411
0	1396	344.5	410
0	1399	345.540761876556	411
0	1400	345.540761876556	412
0	1401	346	411
0	1404	346.699607037711	412
0	1405	346.699607037711	413
0	1406	347.5	412
0	1409	347.541432526725	413
0	1410	347.541432526725	414
0	1412	348.265820458506	415
0	1413	348.265820458506	416
0	1415	348.848546181649	417
0	1416	348.848546181649	418
0	1417	349	417
0	1420	350.291178359463	418
0	1421	350.291178359463	419
0	1422	350.5	418
0	1425	351.270613260288	419
0	1426	351.270613260288	420
0	1428	351.413639742859	421
0	1429	351.413639742859	422
0	1430	352	421
0	1433	352.269529629382	422
0	1434	352.269529629382	423
0	1436	352.599227818085	424
0	1437	352.599227818085	425
0	1439	353.112866302776	426
0	1440	353.112866302776	427
0	1441	353.5	426
0	1444	354.640990720694	427
0	1445	354.640990720694	428
0	1446	355	427
0	1449	356.016259335646	428
0	1450	356.016259335646	429
0	1451	356.5	428
0	1454	357.630065409738	429
0	1455	357.630065409738	430
0	1457	357.878332450177	431
0	1458	357.878332450177	432
0	1459	358	431
0	1462	358.654545471739	432
0	1463	358.654545471739	433
0	1465	358.890499350607	434
0	1466	358.890499350607	435
0	1468	359.137880194621	436
0	1469	359.137880194621	437
0	1470	359.5	436
0	1473	360.030207634894	437
0	1474	360.030207634894	438
0	1475	361	437
0	1478	361.531592867165	438
0	1479	361.531592867165	439
0	1481	362.105902502291	440
0	1482	362.105902502291	441
0	1483	362.5	440
0	1486	362.851858661432	441
0	1487	362.851858661432	442
0	1489	363.784568076248	443
0	1490	363.784568076248	444
0	1491	364	443
0	1494	364.815001075908	444
0	1495	364.815001075908	445
0	1496	365.5	444
0	1499	366.489760617119	445
0	1500	366.489760617119	446
0	1501	367	445
0	1504	367.708408485225	446
0	1505	367.708408485225	447
0	1506	368.5	446
0	1509	369.666258457753	447
0	1510	369.666258457753	448
0	1511	370	447
0	1514	371.146009088018	448
0	1515	371.146009088018	449
0	1516	371.5	448
0	1519	372.323432480894	449
0	1520	372.323432480894	450
0	1522	372.912409599516	451
0	1523	372.912409599516	452
0	1524	373	451
0	1527	373.983058689532	452
0	1528	373.983058689532	453
0	1529	374.5	452
0	1532	375.457790015812	453
0	1533	375.457790015812	454
0	1534	376	453
0	1537	377.040118403978	454
0	1538	377.040118403978	455
0	1539	377.5	454
0	1542	377.788091438248	455
0	1543	377.788091438248	456
0	1544	379	455
0	1547	379.0405497962	456
0	1548	379.0405497962	457
0	1550	379.318487853007	458
0	1551	379.318487853007	459
0	1553	379.516355586005	460
0	1554	379.516355586005	461
0	1556	380.367079425469	462
0	1557	380.367079425469	463
0	1558	380.5	462
0	1561	381.57220059107	463
0	1562	381.57220059107	464
0	1563	382	463
0	1565	383.5	462
0	1568	384.563091960733	463
0	1569	384.563091960733	464
0	1570	385	463
0	1573	385.108088098274	464
0	1574	385.108088098274	465
0	1576	385.50163189596	466
0	1577	385.50163189596	467
0	1578	386.5	466
0	1581	386.962430360264	467
0	1582	386.962430360264	468
0	1583	388	467
0	1586	388.253891123103	468
0	1587	388.253891123103	469
0	1588	389.5	468
0	1591	389.689521115806	469
0	1592	389.689521115806	470
0	1594	390.280023547965	471
0	1595	390.280023547965	472
0	1596	391	471
0	1599	391.511929238424	472
0	1600	391.511929238424	473
0	1601	392.5	472
0	1604	392.953722496787	473
0	1605	392.953722496787	474
0	1607	393.575153274918	475
0	1608	393.575153274918	476
0	1609	394	475
0	1612	394.173973728854	476
0	1613	394.173973728854	477
0	1615	394.907797050237	478
0	1616	394.907797050237	479
0	1617	395.5	478
0	1620	396.385930591247	479
0	1621	396.385930591247	480
0	1623	396.547060518648	481
0	1624	396.547060518648	482
0	1625	397	481
0	1628	397.081858427696	482
0	1629	397.081858427696	483
0	1631	397.328943150362	484
0	1632	397.328943150362	485
0	1633	398.5	484
0	1636	398.781272668911	485
0	1637	398.781272668911	486
0	1639	399.109366904352	487
0	1640	399.109366904352	488
0	1642	399.758466552775	489
0	1643	399.758466552775	490
0	1644	400	489
0	1647	401.051942748447	490
0	1648	401.051942748447	491
0	1649	401.5	490
0	1652	402.024974611824	491
0	1653	402.024974611824	492
0	1655	402.831210798677	493
0	1656	402.831210798677	494
0	1657	403	493
0	1659	404.5	492
0	1662	404.659150719357	493
0	1663	404.659150719357	494
0	1664	406	493
0	1667	406.456580853784	494
0	1668	406.456580853784	495
0	1669	407.5	494
0	1672	407.698706812663	495
0	1673	407.698706812663	496
0	1675	408.950975776816	497
0	1676	408.950975776816	498
0	1677	409	497
0	1679	410.5	496
0	1682	410.882288302904	497
0	1683	410.882288302904	498
0	1684	412	497
0	1687	412.081280430808	498
0	1688	412.081280430808	499
0	1690	413.325562067532	500
0	1691	413.325562067532	501
0	1692	413.5	500
0	1695	413.979008944448	501
0	1696	413.979008944448	502
0	1697	415	501
0	1700	415.209797332856	502
0	1701	415.209797332856	503
0	1702	416.5	502
0	1705	416.674968557728	503
0	1706	416.674968557728	504
0	1707	418	503
0	1710	418.49106590909	504
0	1711	418.49106590909	505
0	1712	419.5	504
0	1715	419.537404094887	505
0	1716	419.537404094887	506
0	1718	419.925713284651	507
0	1719	419.925713284651	508
0	1721	420.426031882178	509
0	1722	420.426031882178	510
0	1723	421	509
0	1726	421.502062177061	510
0	1727	421.502062177061	511
0	1728	422.5	510
0	1731	423.153302039343	511
0	1732	423.153302039343	512
0	1734	423.934660866473	513
0	1735	423.934660866473	514
0	1736	424	513
0	1738	425.5	512
0	1741	426.737272850243	513
0	1742	426.737272850243	514
0	1743	427	513
0	1746	427.001269007979	514
0	1747	427.001269007979	515
0	1749	427.901595416424	516
0	1750	427.901595416424	517
0	1751	428.5	516
0	1754	429.06986933125	517
0	1755	429.06986933125	518
0	1757	429.655918009528	519
0	1758	429.655918009528	520
0	1759	430	519
0	1762	430.047911896088	520
0	1763	430.047911896088	521
0	1765	430.14536631964	522
0	1766	430.14536631964	523
0	1768	431.362168503756	524
0	1769	431.362168503756	525
0	1770	431.5	524
0	1773	432.440967065334	525
0	1774	432.440967065334	526
0	1775	433	525
0	1778	433.005447037459	526
0	1779	433.005447037459	527
0	1781	433.815200144868	528
0	1782	433.815200144868	529
0	1783	434.5	528
0	1786	435.260924883209	529
0	1787	435.260924883209	530
0	1788	436	529
0	1791	437.207540800374	530
0	1792	437.207540800374	531
0	1793	437.5	530
0	1796	437.572542119736	531
0	1797	437.572542119736	532
0	1799	438.522260501688	533
0	1800	438.522260501688	534
0	1801	439	533
0	1804	439.679014143052	534
0	1805	439.679014143052	535
0	1806	440.5	534
0	1809	441.140398831954	535
0	1810	441.140398831954	536
0	1811	442	535
0	1814	442.125753610271	536
0	1815	442.125753610271	537
0	1816	443.5	536
0	1819	443.615314621501	537
0	1820	443.615314621501	538
0	1822	444.972336299562	539
0	1823	444.972336299562	540
0	1824	445	539
0	1827	445.869270727448	540
0	1828	445.869270727448	541
0	1830	446.368372025461	542
0	1831	446.368372025461	543
0	1832	446.5	542
0	1835	447.469756634513	543
0	1836	447.469756634513	544
0	1837	448	543
0	1840	448.686879901546	544
0	1841	448.686879901546	545
0	1842	449.5	544
0	1845	449.771822403087	545
0	1846	449.771822403087	546
0	1848	450.994429283621	547
0	1849	450.994429283621	548
0	1850	451	547
0	1853	451.861442059887	548
0	1854	451.861442059887	549
0	1855	452.5	548
0	1858	453.230087493903	549
0	1859	453.230087493903	550
0	1860	454	549
0	1863	454.566012112995	550
0	1864	454.566012112995	551
0	1865	455.5	550
0	1868	456.467292406891	551
0	1869	456.467292406891	552
0	1870	457	551
0	1873	457.386549525507	552
0	1874	457.386549525507	553
0	1875	458.5	552
0	1878	458.533740654304	553
0	1879	458.533740654304	554
0	1880	460	553
0	1883	461.033275693589	554
0	1884	461.033275693589	555
0	1885	461.5	554
0	1888	462.143609478956	555
0	1889	462.143609478956	556
0	1891	462.936216275891	557
0	1892	462.936216275891	558
0	1893	463	557
0	1895	464.5	556
0	1898	464.645274291088	557
0	1899	464.645274291088	558
0	1901	465.145240314083	559
0	1902	465.145240314083	560
0	1904	465.768218836051	561
0	1905	465.768218836051	562
0	1906	466	561
0	1909	466.741824784455	562
0	1910	466.741824784455	563
0	1911	467.5	562
0	1914	467.80449694867	563
0	1915	467.80449694867	564
0	1917	468.511784891327	565
0	1918	468.511784891327	566
0	1919	469	565
0	1922	469.250607019122	566
0	1923	469.250607019122	567
0	1925	469.852597162008	568
0	1926	469.852597162008	569
0	1927	470.5	568
0	1930	471.095695499755	569
0	1931	471.095695499755	570
0	1933	471.861009179615	571
0	1934	471.861009179615	572
0	1935	472	571