version 3
run MMc-14-20221127-11:38:40-7588
attr configname MMc
attr datetime 20221127-11:38:40
attr datetimef 20221127-113840
attr experiment MMc
attr inifile omnetpp.ini
attr iterationvars "$mean=uniform(0.5s, 1.5s), $dev=0.5*(uniform(0.5s, 1.5s)), $time=1.5, $num=1, $0=47853, $1=24674, $2=96433"
attr iterationvarsd mean=uniform(0.5s,_1.5s)/dev=0.5#2a(uniform(0.5s,_1.5s))/time=1.5/num=1/47853/24674/96433
attr iterationvarsf mean=uniform(0.5s,_1.5s),dev=0.5#2a(uniform(0.5s,_1.5s)),time=1.5,num=1,47853,24674,96433-
attr measurement "$mean=uniform(0.5s, 1.5s), $dev=0.5*(uniform(0.5s, 1.5s)), $time=1.5, $num=1, $0=47853, $1=24674, $2=96433"
attr network MMc
attr processid 7588
attr repetition 2
attr replication #2
attr resultdir results
attr runnumber 14
attr seedset 14
itervar dev "0.5*(uniform(0.5s, 1.5s))"
itervar mean "uniform(0.5s, 1.5s)"
itervar num 1
itervar time 1.5
config description "MMc module"
config network MMc
config MMc.source.interArrivalTime "truncnormal(uniform(0.5s, 1.5s), 0.5*(uniform(0.5s, 1.5s)))"
config MMc.mmc.serviceTime 1.5s
config MMc.mmc.c 1
config MMc.mmc.capacity 10000
config record-eventlog false
config **.scalar-recording true
config **.vector-recording true
config repeat 4
config seed-1-mt 47853
config seed-2-mt 24674
config seed-3-mt 96433
config output-vector-file MMc-1-1.5-results/2.vec
config output-scalar-file MMc-1-1.5-results/2.sca

vector 0 MMc.mmc queueLength:vector ETV
attr interpolationmode none
attr recordingmode vector
attr title "queue length"
vector 1 MMc.mmc util:vector ETV
attr interpolationmode none
attr recordingmode vector
attr title resources
0	0	0	0
0	3	10	1
0	5	10.351825966696	2
0	6	10.351825966696	3
0	7	11.5	2
0	10	11.754894964538	3
0	11	11.754894964538	4
0	13	12.718963545891	5
0	14	12.718963545891	6
0	15	13	5
0	18	13.496390106791	6
0	19	13.496390106791	7
0	21	14.382141294761	8
0	22	14.382141294761	9
0	23	14.5	8
0	26	15.696082024505	9
0	27	15.696082024505	10
0	28	16	9
0	31	16.781170723654	10
0	32	16.781170723654	11
0	33	17.5	10
0	36	17.886191837167	11
0	37	17.886191837167	12
0	38	19	11
0	41	19.727406568565	12
0	42	19.727406568565	13
0	43	20.5	12
0	46	21.589354263117	13
0	47	21.589354263117	14
0	48	22	13
0	51	23.028581832454	14
0	52	23.028581832454	15
0	53	23.5	14
0	56	24.474876909803	15
0	57	24.474876909803	16
0	58	25	15
0	61	25.975677596415	16
0	62	25.975677596415	17
0	63	26.5	16
0	66	27.134092701991	17
0	67	27.134092701991	18
0	68	28	17
0	71	28.073690124576	18
0	72	28.073690124576	19
0	73	29.5	18
0	76	29.766166920389	19
0	77	29.766166920389	20
0	78	31	19
0	81	31.091804993302	20
0	82	31.091804993302	21
0	83	32.5	20
0	86	33.316837979823	21
0	87	33.316837979823	22
0	89	33.545318178317	23
0	90	33.545318178317	24
0	91	34	23
0	94	34.225856009041	24
0	95	34.225856009041	25
0	97	35.296020380778	26
0	98	35.296020380778	27
0	99	35.5	26
0	102	36.289478317505	27
0	103	36.289478317505	28
0	104	37	27
0	107	37.048700869165	28
0	108	37.048700869165	29
0	110	37.569551367325	30
0	111	37.569551367325	31
0	112	38.5	30
0	115	39.16769629705	31
0	116	39.16769629705	32
0	118	39.925981169402	33
0	119	39.925981169402	34
0	120	40	33
0	123	40.260836194194	34
0	124	40.260836194194	35
0	126	41.145101162765	36
0	127	41.145101162765	37
0	128	41.5	36
0	131	42.106425667811	37
0	132	42.106425667811	38
0	134	42.903360377188	39
0	135	42.903360377188	40
0	136	43	39
0	139	44.068316192213	40
0	140	44.068316192213	41
0	141	44.5	40
0	144	44.875935910745	41
0	145	44.875935910745	42
0	146	46	41
0	149	46.171851420777	42
0	150	46.171851420777	43
0	152	46.417531235575	44
0	153	46.417531235575	45
0	155	46.835239955609	46
0	156	46.835239955609	47
0	158	46.92696966576	48
0	159	46.92696966576	49
0	160	47.5	48
0	163	48.096511550092	49
0	164	48.096511550092	50
0	166	48.932345606852	51
0	167	48.932345606852	52
0	168	49	51
0	171	50.053140300087	52
0	172	50.053140300087	53
0	173	50.5	52
0	176	50.810420330285	53
0	177	50.810420330285	54
0	178	52	53
0	181	52.145773595223	54
0	182	52.145773595223	55
0	184	53.058416058392	56
0	185	53.058416058392	57
0	186	53.5	56
0	189	54.384088049699	57
0	190	54.384088049699	58
0	191	55	57
0	194	55.786758041518	58
0	195	55.786758041518	59
0	196	56.5	58
0	198	58	57
0	201	59.204370337157	58
0	202	59.204370337157	59
0	203	59.5	58
0	206	60.103465874578	59
0	207	60.103465874578	60
0	208	61	59
0	211	62.032813358156	60
0	212	62.032813358156	61
0	213	62.5	60
0	216	63.230654358179	61
0	217	63.230654358179	62
0	218	64	61
0	220	65.5	60
0	223	65.719414780883	61
0	224	65.719414780883	62
0	225	67	61
0	228	67.001322507886	62
0	229	67.001322507886	63
0	231	67.224425634979	64
0	232	67.224425634979	65
0	234	68.210048552145	66
0	235	68.210048552145	67
0	236	68.5	66
0	239	68.678069459864	67
0	240	68.678069459864	68
0	242	69.834748186194	69
0	243	69.834748186194	70
0	244	70	69
0	247	71.002795531332	70
0	248	71.002795531332	71
0	249	71.5	70
0	252	72.269661480142	71
0	253	72.269661480142	72
0	254	73	71
0	257	73.629057750227	72
0	258	73.629057750227	73
0	259	74.5	72
0	262	74.826410757494	73
0	263	74.826410757494	74
0	264	76	73
0	267	76.541273083202	74
0	268	76.541273083202	75
0	270	77.128261821574	76
0	271	77.128261821574	77
0	272	77.5	76
0	275	78.732757924806	77
0	276	78.732757924806	78
0	277	79	77
0	280	79.836705961027	78
0	281	79.836705961027	79
0	283	80.346501357776	80
0	284	80.346501357776	81
0	285	80.5	80
0	288	80.550435516178	81
0	289	80.550435516178	82
0	291	81.496028594357	83
0	292	81.496028594357	84
0	294	81.755005822821	85
0	295	81.755005822821	86
0	296	82	85
0	298	83.5	84
0	301	83.799293267718	85
0	302	83.799293267718	86
0	304	84.032827964363	87
0	305	84.032827964363	88
0	306	85	87
0	309	86.095919162204	88
0	310	86.095919162204	89
0	311	86.5	88
0	313	88	87
0	316	88.178551686438	88
0	317	88.178551686438	89
0	319	88.391784777715	90
0	320	88.391784777715	91
0	322	89.148493918147	92
0	323	89.148493918147	93
0	324	89.5	92
0	327	90.302448189171	93
0	328	90.302448189171	94
0	329	91	93
0	332	91.430609255738	94
0	333	91.430609255738	95
0	334	92.5	94
0	337	92.654025949891	95
0	338	92.654025949891	96
0	340	93.580220008376	97
0	341	93.580220008376	98
0	342	94	97
0	344	95.5	96
0	347	95.736822623473	97
0	348	95.736822623473	98
0	350	96.196846510009	99
0	351	96.196846510009	100
0	352	97	99
0	355	97.274489136742	100
0	356	97.274489136742	101
0	357	98.5	100
0	360	98.587972458558	101
0	361	98.587972458558	102
0	362	100	101
0	365	100.547403382704	102
0	366	100.547403382704	103
0	368	101.381809996912	104
0	369	101.381809996912	105
0	370	101.5	104
0	373	102.513251652958	105
0	374	102.513251652958	106
0	375	103	105
0	378	103.357018393046	106
0	379	103.357018393046	107
0	380	104.5	106
0	383	105.002035675227	107
0	384	105.002035675227	108
0	385	106	107
0	388	106.023856390618	108
0	389	106.023856390618	109
0	391	106.544676958294	110
0	392	106.544676958294	111
0	394	107.133509859333	112
0	395	107.133509859333	113
0	396	107.5	112
0	399	107.795159764017	113
0	400	107.795159764017	114
0	402	108.600236212393	115
0	403	108.600236212393	116
0	404	109	115
0	407	110.275692522826	116
0	408	110.275692522826	117
0	409	110.5	116
0	412	110.904419794183	117
0	413	110.904419794183	118
0	415	111.951455988308	119
0	416	111.951455988308	120
0	417	112	119
0	420	113.455279908973	120
0	421	113.455279908973	121
0	422	113.5	120
0	425	113.654887329149	121
0	426	113.654887329149	122
0	428	114.851377268946	123
0	429	114.851377268946	124
0	430	115	123
0	433	115.064254033724	124
0	434	115.064254033724	125
0	436	115.849363926151	126
0	437	115.849363926151	127
0	438	116.5	126
0	441	117.308537169397	127
0	442	117.308537169397	128
0	444	117.642703511474	129
0	445	117.642703511474	130
0	446	118	129
0	449	118.109358015047	130
0	450	118.109358015047	131
0	452	118.186527446287	132
0	453	118.186527446287	133
0	455	119.181745372673	134
0	456	119.181745372673	135
0	457	119.5	134
0	460	120.594934237438	135
0	461	120.594934237438	136
0	462	121	135
0	465	121.573947333395	136
0	466	121.573947333395	137
0	468	122.090275441736	138
0	469	122.090275441736	139
0	470	122.5	138
0	473	123.872848250789	139
0	474	123.872848250789	140
0	475	124	139
0	478	124.652102494523	140
0	479	124.652102494523	141
0	480	125.5	140
0	483	126.08587067794	141
0	484	126.08587067794	142
0	485	127	141
0	488	127.074435696208	142
0	489	127.074435696208	143
0	490	128.5	142
0	493	128.771447593698	143
0	494	128.771447593698	144
0	496	129.67331133704	145
0	497	129.67331133704	146
0	498	130	145
0	501	131.188062825956	146
0	502	131.188062825956	147
0	503	131.5	146
0	506	132.746462614206	147
0	507	132.746462614206	148
0	508	133	147
0	510	134.5	146
0	513	134.554329559794	147
0	514	134.554329559794	148
0	516	135.804697809903	149
0	517	135.804697809903	150
0	518	136	149
0	521	136.288145713306	150
0	522	136.288145713306	151
0	523	137.5	150
0	526	137.919636810223	151
0	527	137.919636810223	152
0	528	139	151
0	531	139.146257174737	152
0	532	139.146257174737	153
0	534	139.876195913383	154
0	535	139.876195913383	155
0	536	140.5	154
0	539	140.765219601836	155
0	540	140.765219601836	156
0	541	142	155
0	544	142.006567471466	156
0	545	142.006567471466	157
0	547	142.211237463528	158
0	548	142.211237463528	159
0	549	143.5	158
0	552	143.521715025789	159
0	553	143.521715025789	160
0	555	144.479527674576	161
0	556	144.479527674576	162
0	557	145	161
0	560	145.893425902304	162
0	561	145.893425902304	163
0	562	146.5	162
0	565	147.723605112278	163
0	566	147.723605112278	164
0	567	148	163
0	570	148.548713139117	164
0	571	148.548713139117	165
0	572	149.5	164
0	575	149.874253516147	165
0	576	149.874253516147	166
0	578	150.47252983503	167
0	579	150.47252983503	168
0	580	151	167
0	582	152.5	166
0	585	153.561263761735	167
0	586	153.561263761735	168
0	587	154	167
0	590	154.494370706425	168
0	591	154.494370706425	169
0	593	154.851807460665	170
0	594	154.851807460665	171
0	596	155.192003034704	172
0	597	155.192003034704	173
0	598	155.5	172
0	601	156.510744489359	173
0	602	156.510744489359	174
0	603	157	173
0	606	157.716669187307	174
0	607	157.716669187307	175
0	608	158.5	174
0	611	158.99634352341	175
0	612	158.99634352341	176
0	613	160	175
0	616	160.903613291746	176
0	617	160.903613291746	177
0	618	161.5	176
0	621	161.632249960547	177
0	622	161.632249960547	178
0	624	162.545861701646	179
0	625	162.545861701646	180
0	626	163	179
0	629	163.00433011399	180
0	630	163.00433011399	181
0	632	163.840225102539	182
0	633	163.840225102539	183
0	634	164.5	182
0	637	165.801850559565	183
0	638	165.801850559565	184
0	639	166	183
0	642	166.59183722049	184
0	643	166.59183722049	185
0	644	167.5	184
0	647	168.218911112592	185
0	648	168.218911112592	186
0	649	169	185
0	652	169.716911200442	186
0	653	169.716911200442	187
0	655	170.429460096063	188
0	656	170.429460096063	189
0	657	170.5	188
0	660	170.50870164859	189
0	661	170.50870164859	190
0	663	171.507831167426	191
0	664	171.507831167426	192
0	665	172	191
0	668	173.029869303353	192
0	669	173.029869303353	193
0	671	173.398737814639	194
0	672	173.398737814639	195
0	673	173.5	194
0	676	174.015058951789	195
0	677	174.015058951789	196
0	679	174.257928674132	197
0	680	174.257928674132	198
0	681	175	197
0	684	175.562185404114	198
0	685	175.562185404114	199
0	686	176.5	198
0	689	176.984730541297	199
0	690	176.984730541297	200
0	691	178	199
0	694	178.484731218859	200
0	695	178.484731218859	201
0	696	179.5	200
0	699	179.509375171679	201
0	700	179.509375171679	202
0	701	181	201
0	704	182.101144227006	202
0	705	182.101144227006	203
0	707	182.338848215578	204
0	708	182.338848215578	205
0	709	182.5	204
0	712	182.663243720598	205
0	713	182.663243720598	206
0	714	184	205
0	717	184.788276114949	206
0	718	184.788276114949	207
0	719	185.5	206
0	722	185.988924996024	207
0	723	185.988924996024	208
0	725	186.617088547563	209
0	726	186.617088547563	210
0	727	187	209
0	730	187.128205227991	210
0	731	187.128205227991	211
0	733	187.478930457382	212
0	734	187.478930457382	213
0	736	188.135233080382	214
0	737	188.135233080382	215
0	738	188.5	214
0	741	189.076848387041	215
0	742	189.076848387041	216
0	744	189.492440063143	217
0	745	189.492440063143	218
0	746	190	217
0	749	190.76860496897	218
0	750	190.76860496897	219
0	751	191.5	218
0	754	191.709020910104	219
0	755	191.709020910104	220
0	757	192.185598058387	221
0	758	192.185598058387	222
0	760	192.803649787971	223
0	761	192.803649787971	224
0	762	193	223
0	765	193.770418380947	224
0	766	193.770418380947	225
0	768	193.779762082661	226
0	769	193.779762082661	227
0	770	194.5	226
0	773	194.910068762765	227
0	774	194.910068762765	228
0	775	196	227
0	778	196.068521581014	228
0	779	196.068521581014	229
0	781	197.198557527891	230
0	782	197.198557527891	231
0	783	197.5	230
0	785	199	229
0	788	199.330545002062	230
0	789	199.330545002062	231
0	791	200.274505138013	232
0	792	200.274505138013	233
0	793	200.5	232
0	796	201.701585081756	233
0	797	201.701585081756	234
0	799	201.898218158183	235
0	800	201.898218158183	236
0	801	202	235
0	803	203.5	234
0	806	203.526686609565	235
0	807	203.526686609565	236
0	809	204.234662325376	237
0	810	204.234662325376	238
0	812	204.561214441931	239
0	813	204.561214441931	240
0	814	205	239
0	817	206.013416011015	240
0	818	206.013416011015	241
0	819	206.5	240
0	822	207.676791508294	241
0	823	207.676791508294	242
0	824	208	241
0	827	209.080558012931	242
0	828	209.080558012931	243
0	829	209.5	242
0	832	209.941518376657	243
0	833	209.941518376657	244
0	835	210.449773654043	245
0	836	210.449773654043	246
0	837	211	245
0	840	211.845064796795	246
0	841	211.845064796795	247
0	842	212.5	246
0	845	213.735724036993	247
0	846	213.735724036993	248
0	847	214	247
0	850	215.471975985626	248
0	851	215.471975985626	249
0	852	215.5	248
0	855	216.783019733625	249
0	856	216.783019733625	250
0	857	217	249
0	860	217.917559090764	250
0	861	217.917559090764	251
0	862	218.5	250
0	865	219.537126445705	251
0	866	219.537126445705	252
0	867	220	251
0	869	221.5	250
0	872	221.863778483034	251
0	873	221.863778483034	252
0	875	222.556554903965	253
0	876	222.556554903965	254
0	878	222.650659858753	255
0	879	222.650659858753	256
0	880	223	255
0	883	223.974385863833	256
0	884	223.974385863833	257
0	885	224.5	256
0	888	225.989555502586	257
0	889	225.989555502586	258
0	890	226	257
0	892	227.5	256
0	895	227.522510305261	257
0	896	227.522510305261	258
0	898	228.696578963675	259
0	899	228.696578963675	260
0	900	229	259
0	903	229.595914831764	260
0	904	229.595914831764	261
0	905	230.5	260
0	908	230.940051119728	261
0	909	230.940051119728	262
0	911	231.680088878048	263
0	912	231.680088878048	264
0	913	232	263
0	916	232.988878226375	264
0	917	232.988878226375	265
0	918	233.5	264
0	921	234.255054797926	265
0	922	234.255054797926	266
0	923	235	265
0	926	235.0644435178	266
0	927	235.0644435178	267
0	929	236.028228930685	268
0	930	236.028228930685	269
0	931	236.5	268
0	934	237.545694443894	269
0	935	237.545694443894	270
0	936	238	269
0	939	238.896777369536	270
0	940	238.896777369536	271
0	941	239.5	270
0	944	240.378823818326	271
0	945	240.378823818326	272
0	946	241	271
0	949	241.516392629348	272
0	950	241.516392629348	273
0	951	242.5	272
0	954	243.292942276563	273
0	955	243.292942276563	274
0	956	244	273
0	959	244.184509519784	274
0	960	244.184509519784	275
0	962	245.040525878188	276
0	963	245.040525878188	277
0	964	245.5	276
0	967	246.166905647895	277
0	968	246.166905647895	278
0	969	247	277
0	972	248.013424219721	278
0	973	248.013424219721	279
0	974	248.5	278
0	977	248.553129835212	279
0	978	248.553129835212	280
0	980	249.732167529923	281
0	981	249.732167529923	282
0	982	250	281
0	985	251.211391789511	282
0	986	251.211391789511	283
0	987	251.5	282
0	990	251.703301454471	283
0	991	251.703301454471	284
0	993	252.804767835934	285
0	994	252.804767835934	286
0	995	253	285
0	998	254.159078050677	286
0	999	254.159078050677	287
0	1000	254.5	286
0	1003	255.24753936596	287
0	1004	255.24753936596	288
0	1005	256	287
0	1008	256.533001795477	288
0	1009	256.533001795477	289
0	1011	256.955646963	290
0	1012	256.955646963	291
0	1013	257.5	290
0	1016	257.682006180379	291
0	1017	257.682006180379	292
0	1019	258.05191516502	293
0	1020	258.05191516502	294
0	1021	259	293
0	1024	259.064769211686	294
0	1025	259.064769211686	295
0	1027	259.406713451345	296
0	1028	259.406713451345	297
0	1030	260.117640756265	298
0	1031	260.117640756265	299
0	1032	260.5	298
0	1035	261.424987649013	299
0	1036	261.424987649013	300
0	1037	262	299
0	1040	262.673317756747	300
0	1041	262.673317756747	301
0	1042	263.5	300
0	1045	263.502653434128	301
0	1046	263.502653434128	302
0	1047	265	301
0	1050	265.334783341997	302
0	1051	265.334783341997	303
0	1053	266.375189028829	304
0	1054	266.375189028829	305
0	1055	266.5	304
0	1058	266.675199301935	305
0	1059	266.675199301935	306
0	1060	268	305
0	1063	268.403758092908	306
0	1064	268.403758092908	307
0	1066	268.780247734298	308
0	1067	268.780247734298	309
0	1068	269.5	308
0	1071	270.153904925976	309
0	1072	270.153904925976	310
0	1074	270.629562349364	311
0	1075	270.629562349364	312
0	1076	271	311
0	1079	271.788728894522	312
0	1080	271.788728894522	313
0	1081	272.5	312
0	1084	273.254038207871	313
0	1085	273.254038207871	314
0	1087	273.935474324589	315
0	1088	273.935474324589	316
0	1089	274	315
0	1092	274.373769113793	316
0	1093	274.373769113793	317
0	1095	274.819788034327	318
0	1096	274.819788034327	319
0	1097	275.5	318
0	1100	276.45934998882	319
0	1101	276.45934998882	320
0	1102	277	319
0	1105	277.424876568944	320
0	1106	277.424876568944	321
0	1107	278.5	320
0	1110	279.099120429452	321
0	1111	279.099120429452	322
0	1112	280	321
0	1115	280.621910359202	322
0	1116	280.621910359202	323
0	1117	281.5	322
0	1120	282.149649724175	323
0	1121	282.149649724175	324
0	1122	283	323
0	1125	283.200743870598	324
0	1126	283.200743870598	325
0	1128	283.334182101851	326
0	1129	283.334182101851	327
0	1131	284.49371730297	328
0	1132	284.49371730297	329
0	1133	284.5	328
0	1135	286	327
0	1138	286.465192974508	328
0	1139	286.465192974508	329
0	1140	287.5	328
0	1143	287.749807837958	329
0	1144	287.749807837958	330
0	1146	288.327357562303	331
0	1147	288.327357562303	332
0	1148	289	331
0	1151	289.686944146363	332
0	1152	289.686944146363	333
0	1154	290.229169567954	334
0	1155	290.229169567954	335
0	1156	290.5	334
0	1158	292	333
0	1161	292.062389188316	334
0	1162	292.062389188316	335
0	1163	293.5	334
0	1166	293.715110508181	335
0	1167	293.715110508181	336
0	1169	294.804854225583	337
0	1170	294.804854225583	338
0	1171	295	337
0	1174	295.627197936129	338
0	1175	295.627197936129	339
0	1177	296.020156327841	340
0	1178	296.020156327841	341
0	1179	296.5	340
0	1182	297.411617930484	341
0	1183	297.411617930484	342
0	1184	298	341
0	1187	298.273355731777	342
0	1188	298.273355731777	343
0	1190	299.211177541512	344
0	1191	299.211177541512	345
0	1192	299.5	344
0	1195	300.997959406536	345
0	1196	300.997959406536	346
0	1197	301	345
0	1200	302.227480407372	346
0	1201	302.227480407372	347
0	1202	302.5	346
0	1205	302.728449198419	347
0	1206	302.728449198419	348
0	1208	303.831774896946	349
0	1209	303.831774896946	350
0	1210	304	349
0	1213	305.114090500962	350
0	1214	305.114090500962	351
0	1215	305.5	350
0	1218	305.856083154004	351
0	1219	305.856083154004	352
0	1220	307	351
0	1223	307.439782696575	352
0	1224	307.439782696575	353
0	1225	308.5	352
0	1228	309.202947951987	353
0	1229	309.202947951987	354
0	1230	310	353
0	1233	311.154843218378	354
0	1234	311.154843218378	355
0	1235	311.5	354
0	1238	312.439585526776	355
0	1239	312.439585526776	356
0	1240	313	355
0	1243	313.399096621856	356
0	1244	313.399096621856	357
0	1245	314.5	356
0	1248	314.989272518092	357
0	1249	314.989272518092	358
0	1250	316	357
0	1253	316.421693303072	358
0	1254	316.421693303072	359
0	1256	316.732135313308	360
0	1257	316.732135313308	361
0	1259	317.213070759237	362
0	1260	317.213070759237	363
0	1261	317.5	362
0	1264	317.973667466611	363
0	1265	317.973667466611	364
0	1267	318.70667948509	365
0	1268	318.70667948509	366
0	1269	319	365
0	1272	319.3721094577	366
0	1273	319.3721094577	367
0	1274	320.5	366
0	1277	320.701485736753	367
0	1278	320.701485736753	368
0	1280	320.892116517687	369
0	1281	320.892116517687	370
0	1282	322	369
0	1285	322.165081327902	370
0	1286	322.165081327902	371
0	1288	323.468171994501	372
0	1289	323.468171994501	373
0	1290	323.5	372
0	1293	324.597661899836	373
0	1294	324.597661899836	374
0	1295	325	373
0	1298	326.344089407078	374
0	1299	326.344089407078	375
0	1300	326.5	374
0	1303	326.738311874378	375
0	1304	326.738311874378	376
0	1306	327.928058046783	377
0	1307	327.928058046783	378
0	1308	328	377
0	1311	328.876498675272	378
0	1312	328.876498675272	379
0	1313	329.5	378
0	1316	329.798354926018	379
0	1317	329.798354926018	380
0	1319	329.875405999653	381
0	1320	329.875405999653	382
0	1321	331	381
0	1324	331.148382860636	382
0	1325	331.148382860636	383
0	1327	332.148290947853	384
0	1328	332.148290947853	385
0	1329	332.5	384
0	1332	333.440375314059	385
0	1333	333.440375314059	386
0	1334	334	385
0	1337	335.021686248705	386
0	1338	335.021686248705	387
0	1339	335.5	386
0	1342	336.501681749183	387
0	1343	336.501681749183	388
0	1344	337	387
0	1347	337.706121202714	388
0	1348	337.706121202714	389
0	1349	338.5	388
0	1352	339.815987819521	389
0	1353	339.815987819521	390
0	1354	340	389
0	1357	340.525455404365	390
0	1358	340.525455404365	391
0	1360	341.016457092359	392
0	1361	341.016457092359	393
0	1362	341.5	392
0	1365	342.413970064249	393
0	1366	342.413970064249	394
0	1367	343	393
0	1370	343.246452828017	394
0	1371	343.246452828017	395
0	1373	344.025272256205	396
0	1374	344.025272256205	397
0	1375	344.5	396
0	1378	345.296487639524	397
0	1379	345.296487639524	398
0	1380	346	397
0	1383	346.62453113643	398
0	1384	346.62453113643	399
0	1386	347.113617231632	400
0	1387	347.113617231632	401
0	1388	347.5	400
0	1391	347.655202323605	401
0	1392	347.655202323605	402
0	1394	348.663743746575	403
0	1395	348.663743746575	404
0	1396	349	403
0	1399	349.521489994443	404
0	1400	349.521489994443	405
0	1402	350.428724181474	406
0	1403	350.428724181474	407
0	1404	350.5	406
0	1407	350.987872918103	407
0	1408	350.987872918103	408
0	1410	351.675750849777	409
0	1411	351.675750849777	410
0	1413	351.854673257254	411
0	1414	351.854673257254	412
0	1415	352	411
0	1418	352.591687303826	412
0	1419	352.591687303826	413
0	1420	353.5	412
0	1423	354.126546372625	413
0	1424	354.126546372625	414
0	1426	354.962648269567	415
0	1427	354.962648269567	416
0	1428	355	415
0	1431	356.308077605864	416
0	1432	356.308077605864	417
0	1433	356.5	416
0	1436	357.045327764184	417
0	1437	357.045327764184	418
0	1438	358	417
0	1441	359.177265412494	418
0	1442	359.177265412494	419
0	1443	359.5	418
0	1446	360.840353230788	419
0	1447	360.840353230788	420
0	1448	361	419
0	1451	361.405943443133	420
0	1452	361.405943443133	421
0	1453	362.5	420
0	1456	362.580805814709	421
0	1457	362.580805814709	422
0	1459	363.428098392002	423
0	1460	363.428098392002	424
0	1461	364	423
0	1464	364.60447435128	424
0	1465	364.60447435128	425
0	1466	365.5	424
0	1469	365.850774195266	425
0	1470	365.850774195266	426
0	1472	366.247217966869	427
0	1473	366.247217966869	428
0	1474	367	427
0	1477	368.089420747158	428
0	1478	368.089420747158	429
0	1479	368.5	428
0	1482	368.997952993837	429
0	1483	368.997952993837	430
0	1484	370	429
0	1487	370.01977745118	430
0	1488	370.01977745118	431
0	1490	371.038151460634	432
0	1491	371.038151460634	433
0	1492	371.5	432
0	1495	372.201136100152	433
0	1496	372.201136100152	434
0	1497	373	433
0	1500	373.309020508152	434
0	1501	373.309020508152	435
0	1503	374.427148149324	436
0	1504	374.427148149324	437
0	1505	374.5	436
0	1507	376	435
0	1510	376.058573590848	436
0	1511	376.058573590848	437
0	1512	377.5	436
0	1515	377.686579360256	437
0	1516	377.686579360256	438
0	1517	379	437
0	1520	379.877001792352	438
0	1521	379.877001792352	439
0	1522	380.5	438
0	1525	381.244761661063	439
0	1526	381.244761661063	440
0	1528	381.954162390671	441
0	1529	381.954162390671	442
0	1530	382	441
0	1532	383.5	440
0	1535	383.76203946588	441
0	1536	383.76203946588	442
0	1538	384.879506678728	443
0	1539	384.879506678728	444
0	1540	385	443
0	1542	386.5	442
0	1545	386.601211931813	443
0	1546	386.601211931813	444
0	1548	387.274713105361	445
0	1549	387.274713105361	446
0	1550	388	445
0	1553	388.051514763281	446
0	1554	388.051514763281	447
0	1556	388.983274121531	448
0	1557	388.983274121531	449
0	1558	389.5	448
0	1560	391	447
0	1563	391.047089151996	448
0	1564	391.047089151996	449
0	1566	392.141436725835	450
0	1567	392.141436725835	451
0	1569	392.4836655711	452
0	1570	392.4836655711	453
0	1571	392.5	452
0	1573	394	451
0	1576	394.153375985226	452
0	1577	394.153375985226	453
0	1578	395.5	452
0	1581	395.582062249837	453
0	1582	395.582062249837	454
0	1584	396.334111607268	455
0	1585	396.334111607268	456
0	1586	397	455
0	1589	397.499688274101	456
0	1590	397.499688274101	457
0	1591	398.5	456
0	1594	399.668539423483	457
0	1595	399.668539423483	458
0	1596	400	457
0	1599	401.474718907762	458
0	1600	401.474718907762	459
0	1601	401.5	458
0	1603	403	457
0	1606	403.092567322671	458
0	1607	403.092567322671	459
0	1609	404.356019017993	460
0	1610	404.356019017993	461
0	1611	404.5	460
0	1614	404.867246902534	461
0	1615	404.867246902534	462
0	1616	406	461
0	1619	407.138528152307	462
0	1620	407.138528152307	463
0	1621	407.5	462
0	1623	409	461
0	1626	409.047610070172	462
0	1627	409.047610070172	463
0	1628	410.5	462
0	1631	410.960268795848	463
0	1632	410.960268795848	464
0	1633	412	463
0	1636	412.237025593583	464
0	1637	412.237025593583	465
0	1639	413.112459929378	466
0	1640	413.112459929378	467
0	1642	413.182592232841	468
0	1643	413.182592232841	469
0	1644	413.5	468
0	1647	414.574686745273	469
0	1648	414.574686745273	470
0	1649	415	469
0	1652	415.197073881809	470
0	1653	415.197073881809	471
0	1655	415.58282546176	472
0	1656	415.58282546176	473
0	1657	416.5	472
0	1660	417.249216198953	473
0	1661	417.249216198953	474
0	1662	418	473
0	1665	418.631871355002	474
0	1666	418.631871355002	475
0	1668	419.248781455098	476
0	1669	419.248781455098	477
0	1670	419.5	476
0	1672	421	475
0	1675	421.066019970905	476
0	1676	421.066019970905	477
0	1678	421.153366164047	478
0	1679	421.153366164047	479
0	1681	421.781390070608	480
0	1682	421.781390070608	481
0	1684	422.406878358206	482
0	1685	422.406878358206	483
0	1686	422.5	482
0	1689	422.828809970755	483
0	1690	422.828809970755	484
0	1692	423.745674875737	485
0	1693	423.745674875737	486
0	1694	424	485
0	1697	424.59961915999	486
0	1698	424.59961915999	487
0	1700	425.284377771792	488
0	1701	425.284377771792	489
0	1702	425.5	488
0	1705	426.559197888213	489
0	1706	426.559197888213	490
0	1708	426.563264217457	491
0	1709	426.563264217457	492
0	1711	426.738493078949	493
0	1712	426.738493078949	494
0	1713	427	493
0	1716	427.788373072574	494
0	1717	427.788373072574	495
0	1719	427.975054973624	496
0	1720	427.975054973624	497
0	1721	428.5	496
0	1724	428.959569963673	497
0	1725	428.959569963673	498
0	1726	430	497
0	1729	430.339340627914	498
0	1730	430.339340627914	499
0	1732	431.324837603978	500
0	1733	431.324837603978	501
0	1734	431.5	500
0	1737	432.919441823278	501
0	1738	432.919441823278	502
0	1739	433	501
0	1742	434.31000844338	502
0	1743	434.31000844338	503
0	1744	434.5	502
0	1747	435.51310136283	503
0	1748	435.51310136283	504
0	1749	436	503
0	1752	436.328806363691	504
0	1753	436.328806363691	505
0	1754	437.5	504
0	1757	438.231141562418	505
0	1758	438.231141562418	506
0	1760	438.782680928701	507
0	1761	438.782680928701	508
0	1762	439	507
0	1765	439.926266996417	508
0	1766	439.926266996417	509
0	1767	440.5	508
0	1770	441.012371730017	509
0	1771	441.012371730017	510
0	1772	442	509
0	1775	442.348173756002	510
0	1776	442.348173756002	511
0	1778	443.006642363906	512
0	1779	443.006642363906	513
0	1780	443.5	512
0	1783	444.997524507823	513
0	1784	444.997524507823	514
0	1785	445	513
0	1788	446.099451694075	514
0	1789	446.099451694075	515
0	1790	446.5	514
0	1793	447.558605620301	515
0	1794	447.558605620301	516
0	1796	447.636769077197	517
0	1797	447.636769077197	518
0	1798	448	517
0	1801	449.223063528445	518
0	1802	449.223063528445	519
0	1803	449.5	518
0	1806	450.834289903267	519
0	1807	450.834289903267	520
0	1808	451	519
0	1810	452.5	518
0	1813	452.675926665895	519
0	1814	452.675926665895	520
0	1815	454	519
0	1818	454.107462465431	520
0	1819	454.107462465431	521
0	1820	455.5	520
0	1823	456.208820734341	521
0	1824	456.208820734341	522
0	1826	456.562379297089	523
0	1827	456.562379297089	524
0	1828	457	523
0	1831	457.395925203069	524
0	1832	457.395925203069	525
0	1834	458.175377984228	526
0	1835	458.175377984228	527
0	1836	458.5	526
0	1839	458.895934479904	527
0	1840	458.895934479904	528
0	1841	460	527
0	1844	460.613246815738	528
0	1845	460.613246815738	529
0	1847	460.93132714918	530
0	1848	460.93132714918	531
0	1849	461.5	530
0	1852	461.988146492717	531
0	1853	461.988146492717	532
0	1854	463	531
0	1857	463.420442286101	532
0	1858	463.420442286101	533
0	1859	464.5	532
0	1862	464.939039324655	533
0	1863	464.939039324655	534
0	1864	466	533
0	1867	466.302112533909	534
0	1868	466.302112533909	535
0	1870	467.448096872261	536
0	1871	467.448096872261	537
0	1872	467.5	536
0	1875	468.008061232216	537
0	1876	468.008061232216	538
0	1878	468.19129142887	539
0	1879	468.19129142887	540
0	1880	469	539
0	1883	470.445376424792	540
0	1884	470.445376424792	541
0	1885	470.5	540
0	1888	471.456412906882	541
0	1889	471.456412906882	542
0	1890	472	541
0	1893	472.237828596111	542
0	1894	472.237828596111	543
0	1896	473.369424608656	544
0	1897	473.369424608656	545
0	1898	473.5	544
0	1900	475	543
0	1903	475.084215374836	544
0	1904	475.084215374836	545
0	1906	475.936464386154	546
0	1907	475.936464386154	547
0	1908	476.5	546
0	1911	476.891272767469	547
0	1912	476.891272767469	548
0	1913	478	547
0	1916	478.199074012208	548
0	1917	478.199074012208	549
0	1919	479.240292085316	550
0	1920	479.240292085316	551
0	1921	479.5	550
0	1924	480.378995832421	551
0	1925	480.378995832421	552
0	1926	481	551
0	1928	482.5	550
0	1931	482.526969827253	551
0	1932	482.526969827253	552
0	1934	483.297299454092	553
0	1935	483.297299454092	554
0	1937	483.932802585402	555
0	1938	483.932802585402	556
0	1939	484	555
0	1941	485.5	554
0	1944	485.552775460773	555
0	1945	485.552775460773	556
0	1947	486.757345487142	557
0	1948	486.757345487142	558