version 3
run MMc-15-20221127-11:38:40-7588
attr configname MMc
attr datetime 20221127-11:38:40
attr datetimef 20221127-113840
attr experiment MMc
attr inifile omnetpp.ini
attr iterationvars "$mean=uniform(0.5s, 1.5s), $dev=0.5*(uniform(0.5s, 1.5s)), $time=1.5, $num=1, $0=33434, $1=56673, $2=23567"
attr iterationvarsd mean=uniform(0.5s,_1.5s)/dev=0.5#2a(uniform(0.5s,_1.5s))/time=1.5/num=1/33434/56673/23567
attr iterationvarsf mean=uniform(0.5s,_1.5s),dev=0.5#2a(uniform(0.5s,_1.5s)),time=1.5,num=1,33434,56673,23567-
attr measurement "$mean=uniform(0.5s, 1.5s), $dev=0.5*(uniform(0.5s, 1.5s)), $time=1.5, $num=1, $0=33434, $1=56673, $2=23567"
attr network MMc
attr processid 7588
attr repetition 3
attr replication #3
attr resultdir results
attr runnumber 15
attr seedset 15
itervar dev "0.5*(uniform(0.5s, 1.5s))"
itervar mean "uniform(0.5s, 1.5s)"
itervar num 1
itervar time 1.5
config description "MMc module"
config network MMc
config MMc.source.interArrivalTime "truncnormal(uniform(0.5s, 1.5s), 0.5*(uniform(0.5s, 1.5s)))"
config MMc.mmc.serviceTime 1.5s
config MMc.mmc.c 1
config MMc.mmc.capacity 10000
config record-eventlog false
config **.scalar-recording true
config **.vector-recording true
config repeat 4
config seed-1-mt 33434
config seed-2-mt 56673
config seed-3-mt 23567
config output-vector-file MMc-1-1.5-results/3.vec
config output-scalar-file MMc-1-1.5-results/3.sca

vector 0 MMc.mmc queueLength:vector ETV
attr interpolationmode none
attr recordingmode vector
attr title "queue length"
vector 1 MMc.mmc util:vector ETV
attr interpolationmode none
attr recordingmode vector
attr title resources
0	0	0	0
0	3	10	1
0	5	11.002532859648	2
0	6	11.002532859648	3
0	7	11.5	2
0	10	11.677825962692	3
0	11	11.677825962692	4
0	12	13	3
0	15	13.319032854414	4
0	16	13.319032854414	5
0	18	14.019119944022	6
0	19	14.019119944022	7
0	20	14.5	6
0	23	14.818681379514	7
0	24	14.818681379514	8
0	25	16	7
0	28	16.027794761241	8
0	29	16.027794761241	9
0	30	17.5	8
0	33	18.293471138129	9
0	34	18.293471138129	10
0	35	19	9
0	38	19.759480729606	10
0	39	19.759480729606	11
0	41	20.455487690829	12
0	42	20.455487690829	13
0	43	20.5	12
0	46	20.859921378514	13
0	47	20.859921378514	14
0	48	22	13
0	51	22.321722380856	14
0	52	22.321722380856	15
0	53	23.5	14
0	56	23.905945551605	15
0	57	23.905945551605	16
0	58	25	15
0	61	25.043953544019	16
0	62	25.043953544019	17
0	64	25.342657232458	18
0	65	25.342657232458	19
0	67	25.910720179993	20
0	68	25.910720179993	21
0	70	26.269554003681	22
0	71	26.269554003681	23
0	72	26.5	22
0	75	27.82746452714	23
0	76	27.82746452714	24
0	77	28	23
0	80	29.312374005111	24
0	81	29.312374005111	25
0	82	29.5	24
0	85	29.953269669397	25
0	86	29.953269669397	26
0	87	31	25
0	90	31.023266350446	26
0	91	31.023266350446	27
0	93	31.581756425281	28
0	94	31.581756425281	29
0	95	32.5	28
0	98	32.592136456927	29
0	99	32.592136456927	30
0	101	33.046111535699	31
0	102	33.046111535699	32
0	104	33.670978382108	33
0	105	33.670978382108	34
0	106	34	33
0	109	35.14391971249	34
0	110	35.14391971249	35
0	111	35.5	34
0	114	36.70113983949	35
0	115	36.70113983949	36
0	116	37	35
0	119	37.922636306012	36
0	120	37.922636306012	37
0	121	38.5	36
0	124	39.779457647634	37
0	125	39.779457647634	38
0	126	40	37
0	129	40.944681152888	38
0	130	40.944681152888	39
0	132	41.341845134144	40
0	133	41.341845134144	41
0	134	41.5	40
0	137	42.46708871618	41
0	138	42.46708871618	42
0	139	43	41
0	142	43.002581564452	42
0	143	43.002581564452	43
0	145	43.685785337953	44
0	146	43.685785337953	45
0	147	44.5	44
0	150	44.738880201696	45
0	151	44.738880201696	46
0	152	46	45
0	155	46.441657005112	46
0	156	46.441657005112	47
0	158	47.061997032335	48
0	159	47.061997032335	49
0	160	47.5	48
0	162	49	47
0	165	49.521069521788	48
0	166	49.521069521788	49
0	168	49.816534405032	50
0	169	49.816534405032	51
0	170	50.5	50
0	173	51.366582084968	51
0	174	51.366582084968	52
0	175	52	51
0	178	52.254830213366	52
0	179	52.254830213366	53
0	180	53.5	52
0	183	53.61915199912	53
0	184	53.61915199912	54
0	186	54.514592807328	55
0	187	54.514592807328	56
0	188	55	55
0	191	55.470040742305	56
0	192	55.470040742305	57
0	193	56.5	56
0	196	57.200729453477	57
0	197	57.200729453477	58
0	199	57.61803525763	59
0	200	57.61803525763	60
0	201	58	59
0	204	59.200327192404	60
0	205	59.200327192404	61
0	206	59.5	60
0	208	61	59
0	211	61.249470704541	60
0	212	61.249470704541	61
0	214	62.172516450579	62
0	215	62.172516450579	63
0	216	62.5	62
0	219	62.93505106667	63
0	220	62.93505106667	64
0	222	63.645236638348	65
0	223	63.645236638348	66
0	224	64	65
0	226	65.5	64
0	229	65.680619786537	65
0	230	65.680619786537	66
0	232	66.759294770624	67
0	233	66.759294770624	68
0	234	67	67
0	237	68.192923125925	68
0	238	68.192923125925	69
0	239	68.5	68
0	242	69.179207147626	69
0	243	69.179207147626	70
0	244	70	69
0	247	70.557181881062	70
0	248	70.557181881062	71
0	249	71.5	70
0	252	72.164253772921	71
0	253	72.164253772921	72
0	254	73	71
0	257	73.086776967649	72
0	258	73.086776967649	73
0	260	73.851014149426	74
0	261	73.851014149426	75
0	262	74.5	74
0	265	74.53336602045	75
0	266	74.53336602045	76
0	267	76	75
0	270	77.260613143058	76
0	271	77.260613143058	77
0	272	77.5	76
0	274	79	75
0	277	79.060303061282	76
0	278	79.060303061282	77
0	280	79.448537095987	78
0	281	79.448537095987	79
0	283	80.208388842236	80
0	284	80.208388842236	81
0	285	80.5	80
0	287	82	79
0	290	82.262674962531	80
0	291	82.262674962531	81
0	293	82.639271340353	82
0	294	82.639271340353	83
0	295	83.5	82
0	298	83.891020134024	83
0	299	83.891020134024	84
0	300	85	83
0	303	85.225414776445	84
0	304	85.225414776445	85
0	306	85.675895211555	86
0	307	85.675895211555	87
0	308	86.5	86
0	311	87.12142795012	87
0	312	87.12142795012	88
0	314	87.584801011191	89
0	315	87.584801011191	90
0	316	88	89
0	319	88.668197228757	90
0	320	88.668197228757	91
0	321	89.5	90
0	324	89.933646782781	91
0	325	89.933646782781	92
0	327	90.606563265684	93
0	328	90.606563265684	94
0	329	91	93
0	332	91.071251189357	94
0	333	91.071251189357	95
0	335	92.285237665028	96
0	336	92.285237665028	97
0	337	92.5	96
0	339	94	95
0	342	94.805576592243	96
0	343	94.805576592243	97
0	344	95.5	96
0	347	95.635673499668	97
0	348	95.635673499668	98
0	350	95.964215030441	99
0	351	95.964215030441	100
0	352	97	99
0	355	97.888272720883	100
0	356	97.888272720883	101
0	357	98.5	100
0	360	99.309182319394	101
0	361	99.309182319394	102
0	363	99.835179453511	103
0	364	99.835179453511	104
0	365	100	103
0	368	100.41120470797	104
0	369	100.41120470797	105
0	370	101.5	104
0	373	101.798520103098	105
0	374	101.798520103098	106
0	376	102.465423458815	107
0	377	102.465423458815	108
0	378	103	107
0	381	103.796758566479	108
0	382	103.796758566479	109
0	383	104.5	108
0	385	106	107
0	388	106.022078431731	108
0	389	106.022078431731	109
0	391	106.481162811911	110
0	392	106.481162811911	111
0	393	107.5	110
0	396	107.590482558322	111
0	397	107.590482558322	112
0	399	108.013975511424	113
0	400	108.013975511424	114
0	401	109	113
0	404	109.25632508643	114
0	405	109.25632508643	115
0	407	109.930784741654	116
0	408	109.930784741654	117
0	410	110.068230965641	118
0	411	110.068230965641	119
0	412	110.5	118
0	415	110.894786995061	119
0	416	110.894786995061	120
0	418	111.868778016458	121
0	419	111.868778016458	122
0	420	112	121
0	423	112.864137558973	122
0	424	112.864137558973	123
0	425	113.5	122
0	428	114.006527676145	123
0	429	114.006527676145	124
0	431	114.798293652613	125
0	432	114.798293652613	126
0	433	115	125
0	435	116.5	124
0	438	116.656307350322	125
0	439	116.656307350322	126
0	440	118	125
0	443	118.14270011932	126
0	444	118.14270011932	127
0	446	119.014805724691	128
0	447	119.014805724691	129
0	449	119.324522861274	130
0	450	119.324522861274	131
0	451	119.5	130
0	454	120.260988701621	131
0	455	120.260988701621	132
0	456	121	131
0	459	121.494568130602	132
0	460	121.494568130602	133
0	462	122.341378554482	134
0	463	122.341378554482	135
0	464	122.5	134
0	467	123.647490768033	135
0	468	123.647490768033	136
0	469	124	135
0	472	124.503139330815	136
0	473	124.503139330815	137
0	475	124.740660719747	138
0	476	124.740660719747	139
0	477	125.5	138
0	480	125.51933020748	139
0	481	125.51933020748	140
0	483	126.46005165406	141
0	484	126.46005165406	142
0	485	127	141
0	488	127.884479682018	142
0	489	127.884479682018	143
0	490	128.5	142
0	493	128.869004829366	143
0	494	128.869004829366	144
0	495	130	143
0	498	130.338436383085	144
0	499	130.338436383085	145
0	500	131.5	144
0	503	132.244842026411	145
0	504	132.244842026411	146
0	506	132.805029779423	147
0	507	132.805029779423	148
0	508	133	147
0	510	134.5	146
0	513	134.610529342162	147
0	514	134.610529342162	148
0	516	135.355263580654	149
0	517	135.355263580654	150
0	519	135.707478910723	151
0	520	135.707478910723	152
0	521	136	151
0	524	136.774218575946	152
0	525	136.774218575946	153
0	526	137.5	152
0	529	138.970146820029	153
0	530	138.970146820029	154
0	531	139	153
0	533	140.5	152
0	536	140.672368714094	153
0	537	140.672368714094	154
0	539	141.264582195886	155
0	540	141.264582195886	156
0	542	141.938532426561	157
0	543	141.938532426561	158
0	544	142	157
0	547	142.477318867978	158
0	548	142.477318867978	159
0	550	142.653282400715	160
0	551	142.653282400715	161
0	552	143.5	160
0	555	143.649077404811	161
0	556	143.649077404811	162
0	558	144.979220077537	163
0	559	144.979220077537	164
0	560	145	163
0	563	145.849798633926	164
0	564	145.849798633926	165
0	565	146.5	164
0	568	147.149426919295	165
0	569	147.149426919295	166
0	570	148	165
0	573	148.311788665297	166
0	574	148.311788665297	167
0	575	149.5	166
0	578	150.392093315065	167
0	579	150.392093315065	168
0	581	150.692267503507	169
0	582	150.692267503507	170
0	583	151	169
0	586	151.468386510719	170
0	587	151.468386510719	171
0	588	152.5	170
0	591	152.948444126775	171
0	592	152.948444126775	172
0	594	153.212847589277	173
0	595	153.212847589277	174
0	596	154	173
0	599	154.264475119454	174
0	600	154.264475119454	175
0	602	155.460399282739	176
0	603	155.460399282739	177
0	604	155.5	176
0	607	156.436973492544	177
0	608	156.436973492544	178
0	609	157	177
0	612	157.424024457049	178
0	613	157.424024457049	179
0	614	158.5	178
0	616	160	177
0	619	160.043522048655	178
0	620	160.043522048655	179
0	622	160.967801563917	180
0	623	160.967801563917	181
0	625	161.136399794661	182
0	626	161.136399794661	183
0	628	161.224745013881	184
0	629	161.224745013881	185
0	630	161.5	184
0	633	162.113134616097	185
0	634	162.113134616097	186
0	636	162.571998235345	187
0	637	162.571998235345	188
0	638	163	187
0	641	163.689917138138	188
0	642	163.689917138138	189
0	643	164.5	188
0	646	164.595222301705	189
0	647	164.595222301705	190
0	649	165.491773704531	191
0	650	165.491773704531	192
0	651	166	191
0	654	166.208650005165	192
0	655	166.208650005165	193
0	657	167.191307806425	194
0	658	167.191307806425	195
0	659	167.5	194
0	661	169	193
0	664	169.785311857918	194
0	665	169.785311857918	195
0	666	170.5	194
0	669	170.516422757016	195
0	670	170.516422757016	196
0	672	171.266947450777	197
0	673	171.266947450777	198
0	674	172	197
0	677	172.22674649681	198
0	678	172.22674649681	199
0	679	173.5	198
0	682	173.631776710224	199
0	683	173.631776710224	200
0	684	175	199
0	687	175.413929184004	200
0	688	175.413929184004	201
0	690	176.426390684441	202
0	691	176.426390684441	203
0	692	176.5	202
0	695	177.319684926541	203
0	696	177.319684926541	204
0	698	177.923653876273	205
0	699	177.923653876273	206
0	700	178	205
0	703	178.301846348035	206
0	704	178.301846348035	207
0	705	179.5	206
0	708	179.712451756873	207
0	709	179.712451756873	208
0	711	180.528446744602	209
0	712	180.528446744602	210
0	713	181	209
0	716	181.401355886587	210
0	717	181.401355886587	211
0	719	182.391432256031	212
0	720	182.391432256031	213
0	721	182.5	212
0	724	183.966379067814	213
0	725	183.966379067814	214
0	726	184	213
0	729	184.760289413198	214
0	730	184.760289413198	215
0	732	185.405249667632	216
0	733	185.405249667632	217
0	734	185.5	216
0	737	185.821022045561	217
0	738	185.821022045561	218
0	740	186.650204301975	219
0	741	186.650204301975	220
0	742	187	219
0	745	187.779586872415	220
0	746	187.779586872415	221
0	748	188.488980233887	222
0	749	188.488980233887	223
0	750	188.5	222
0	752	190	221
0	755	190.280759997705	222
0	756	190.280759997705	223
0	758	190.757108557648	224
0	759	190.757108557648	225
0	760	191.5	224
0	763	192.209848270685	225
0	764	192.209848270685	226
0	766	192.78648860639	227
0	767	192.78648860639	228
0	768	193	227
0	771	194.200902580214	228
0	772	194.200902580214	229
0	773	194.5	228
0	776	194.945924650997	229
0	777	194.945924650997	230
0	778	196	229
0	781	197.114766520694	230
0	782	197.114766520694	231
0	783	197.5	230
0	786	198.544534644154	231
0	787	198.544534644154	232
0	788	199	231
0	791	199.596370465744	232
0	792	199.596370465744	233
0	793	200.5	232
0	796	201.536701162267	233
0	797	201.536701162267	234
0	798	202	233
0	801	202.026405808736	234
0	802	202.026405808736	235
0	803	203.5	234
0	806	203.923961766195	235
0	807	203.923961766195	236
0	809	203.959625652717	237
0	810	203.959625652717	238
0	812	204.765617821143	239
0	813	204.765617821143	240
0	815	204.998168026774	241
0	816	204.998168026774	242
0	817	205	241
0	820	206.040920316339	242
0	821	206.040920316339	243
0	822	206.5	242
0	825	206.94491571769	243
0	826	206.94491571769	244
0	827	208	243
0	830	208.570166658244	244
0	831	208.570166658244	245
0	832	209.5	244
0	835	209.854512870997	245
0	836	209.854512870997	246
0	838	210.540587027032	247
0	839	210.540587027032	248
0	841	210.93297393797	249
0	842	210.93297393797	250
0	843	211	249
0	846	211.454602427983	250
0	847	211.454602427983	251
0	849	212.30612243717	252
0	850	212.30612243717	253
0	851	212.5	252
0	853	214	251
0	856	214.465870612034	252
0	857	214.465870612034	253
0	859	214.995881853244	254
0	860	214.995881853244	255
0	861	215.5	254
0	864	216.188856128439	255
0	865	216.188856128439	256
0	866	217	255
0	869	217.264342020158	256
0	870	217.264342020158	257
0	872	217.903717993583	258
0	873	217.903717993583	259
0	874	218.5	258
0	877	219.348481178657	259
0	878	219.348481178657	260
0	879	220	259
0	882	220.269945421807	260
0	883	220.269945421807	261
0	885	220.54889965379	262
0	886	220.54889965379	263
0	888	221.118908237043	264
0	889	221.118908237043	265
0	890	221.5	264
0	893	222.315755551917	265
0	894	222.315755551917	266
0	895	223	265
0	898	223.690644300125	266
0	899	223.690644300125	267
0	901	224.356257441829	268
0	902	224.356257441829	269
0	903	224.5	268
0	906	224.962093588432	269
0	907	224.962093588432	270
0	908	226	269
0	911	226.457325821103	270
0	912	226.457325821103	271
0	913	227.5	270
0	916	227.825691190189	271
0	917	227.825691190189	272
0	919	228.335549907012	273
0	920	228.335549907012	274
0	921	229	273
0	924	230.418040760011	274
0	925	230.418040760011	275
0	926	230.5	274
0	929	231.257285328746	275
0	930	231.257285328746	276
0	931	232	275
0	934	232.873784668138	276
0	935	232.873784668138	277
0	936	233.5	276
0	939	234.064205983233	277
0	940	234.064205983233	278
0	942	234.41181688951	279
0	943	234.41181688951	280
0	944	235	279
0	947	235.680356456159	280
0	948	235.680356456159	281
0	949	236.5	280
0	951	238	279
0	954	238.195409407825	280
0	955	238.195409407825	281
0	957	238.804298478219	282
0	958	238.804298478219	283
0	960	239.287928373911	284
0	961	239.287928373911	285
0	962	239.5	284
0	965	240.622525236395	285
0	966	240.622525236395	286
0	967	241	285
0	970	241.477447716184	286
0	971	241.477447716184	287
0	973	241.950968422604	288
0	974	241.950968422604	289
0	975	242.5	288
0	978	243.140042580455	289
0	979	243.140042580455	290
0	981	243.242134300717	291
0	982	243.242134300717	292
0	983	244	291
0	986	245.057673181808	292
0	987	245.057673181808	293
0	988	245.5	292
0	990	247	291
0	993	247.025828851682	292
0	994	247.025828851682	293
0	996	248.159566182654	294
0	997	248.159566182654	295
0	998	248.5	294
0	1001	249.225293212659	295
0	1002	249.225293212659	296
0	1003	250	295
0	1006	251.031281616972	296
0	1007	251.031281616972	297
0	1008	251.5	296
0	1011	252.206621449649	297
0	1012	252.206621449649	298
0	1013	253	297
0	1016	253.301681608266	298
0	1017	253.301681608266	299
0	1019	253.929421979596	300
0	1020	253.929421979596	301
0	1021	254.5	300
0	1024	255.651430496827	301
0	1025	255.651430496827	302
0	1026	256	301
0	1029	256.79491358809	302
0	1030	256.79491358809	303
0	1032	257.47876795636	304
0	1033	257.47876795636	305
0	1034	257.5	304
0	1037	257.945230528013	305
0	1038	257.945230528013	306
0	1040	258.728586409821	307
0	1041	258.728586409821	308
0	1042	259	307
0	1045	259.688240393404	308
0	1046	259.688240393404	309
0	1048	260.409627854339	310
0	1049	260.409627854339	311
0	1050	260.5	310
0	1053	261.192004727445	311
0	1054	261.192004727445	312
0	1056	261.901281483305	313
0	1057	261.901281483305	314
0	1058	262	313
0	1061	263.2006579823	314
0	1062	263.2006579823	315
0	1063	263.5	314
0	1066	263.906451804353	315
0	1067	263.906451804353	316
0	1069	264.711871204942	317
0	1070	264.711871204942	318
0	1071	265	317
0	1074	266.100853692132	318
0	1075	266.100853692132	319
0	1076	266.5	318
0	1079	267.458943747684	319
0	1080	267.458943747684	320
0	1081	268	319
0	1083	269.5	318
0	1086	269.522297684806	319
0	1087	269.522297684806	320
0	1089	270.109444044364	321
0	1090	270.109444044364	322
0	1091	271	321
0	1094	271.464651205401	322
0	1095	271.464651205401	323
0	1096	272.5	322
0	1099	272.597785323287	323
0	1100	272.597785323287	324
0	1102	273.387640373762	325
0	1103	273.387640373762	326
0	1104	274	325
0	1107	274.662656422615	326
0	1108	274.662656422615	327
0	1109	275.5	326
0	1112	275.916901121736	327
0	1113	275.916901121736	328
0	1115	276.527936940992	329
0	1116	276.527936940992	330
0	1117	277	329
0	1120	277.128898463578	330
0	1121	277.128898463578	331
0	1122	278.5	330
0	1125	278.518143199138	331
0	1126	278.518143199138	332
0	1128	279.521044703984	333
0	1129	279.521044703984	334
0	1130	280	333
0	1133	281.377950791747	334
0	1134	281.377950791747	335
0	1135	281.5	334
0	1138	282.386240519231	335
0	1139	282.386240519231	336
0	1140	283	335
0	1143	284.032406511279	336
0	1144	284.032406511279	337
0	1146	284.431061008953	338
0	1147	284.431061008953	339
0	1148	284.5	338
0	1150	286	337
0	1153	286.073406501615	338
0	1154	286.073406501615	339
0	1156	287.432169160597	340
0	1157	287.432169160597	341
0	1158	287.5	340
0	1161	287.8130080068	341
0	1162	287.8130080068	342
0	1164	288.29642604835	343
0	1165	288.29642604835	344
0	1167	288.68841944621	345
0	1168	288.68841944621	346
0	1169	289	345
0	1172	290.222687593366	346
0	1173	290.222687593366	347
0	1174	290.5	346
0	1177	290.773890795311	347
0	1178	290.773890795311	348
0	1180	291.118937338906	349
0	1181	291.118937338906	350
0	1183	291.425306820152	351
0	1184	291.425306820152	352
0	1185	292	351
0	1188	292.045194978667	352
0	1189	292.045194978667	353
0	1191	292.962568833097	354
0	1192	292.962568833097	355
0	1193	293.5	354
0	1196	294.262219102737	355
0	1197	294.262219102737	356
0	1198	295	355
0	1201	295.602830907702	356
0	1202	295.602830907702	357
0	1203	296.5	356
0	1206	296.683739946845	357
0	1207	296.683739946845	358
0	1209	297.361528394032	359
0	1210	297.361528394032	360
0	1211	298	359
0	1214	298.756975113036	360
0	1215	298.756975113036	361
0	1216	299.5	360
0	1219	300.142885459067	361
0	1220	300.142885459067	362
0	1221	301	361
0	1224	301.201636058433	362
0	1225	301.201636058433	363
0	1226	302.5	362
0	1229	302.544011933775	363
0	1230	302.544011933775	364
0	1231	304	363
0	1234	304.143885391401	364
0	1235	304.143885391401	365
0	1237	304.95126837256	366
0	1238	304.95126837256	367
0	1239	305.5	366
0	1242	306.170470342616	367
0	1243	306.170470342616	368
0	1244	307	367
0	1247	308.347753926083	368
0	1248	308.347753926083	369
0	1249	308.5	368
0	1252	308.564848405972	369
0	1253	308.564848405972	370
0	1255	309.671072625615	371
0	1256	309.671072625615	372
0	1257	310	371
0	1260	310.497202566567	372
0	1261	310.497202566567	373
0	1262	311.5	372
0	1265	311.617039447904	373
0	1266	311.617039447904	374
0	1268	312.369253834002	375
0	1269	312.369253834002	376
0	1270	313	375
0	1273	314.197407705354	376
0	1274	314.197407705354	377
0	1275	314.5	376
0	1278	314.69999642686	377
0	1279	314.69999642686	378
0	1281	315.563033720674	379
0	1282	315.563033720674	380
0	1283	316	379
0	1286	316.656265962034	380
0	1287	316.656265962034	381
0	1288	317.5	380
0	1291	318.631461106367	381
0	1292	318.631461106367	382
0	1293	319	381
0	1296	319.970337294249	382
0	1297	319.970337294249	383
0	1298	320.5	382
0	1301	320.611118181434	383
0	1302	320.611118181434	384
0	1304	321.59216126825	385
0	1305	321.59216126825	386
0	1306	322	385
0	1309	322.670393620068	386
0	1310	322.670393620068	387
0	1312	323.40012065767	388
0	1313	323.40012065767	389
0	1314	323.5	388
0	1317	324.336642915197	389
0	1318	324.336642915197	390
0	1319	325	389
0	1322	325.670366959677	390
0	1323	325.670366959677	391
0	1325	326.395420927256	392
0	1326	326.395420927256	393
0	1327	326.5	392
0	1330	326.98586525955	393
0	1331	326.98586525955	394
0	1332	328	393
0	1335	328.03982333115	394
0	1336	328.03982333115	395
0	1338	329.104063943906	396
0	1339	329.104063943906	397
0	1341	329.216160183116	398
0	1342	329.216160183116	399
0	1343	329.5	398
0	1346	330.373257536232	399
0	1347	330.373257536232	400
0	1348	331	399
0	1351	332.221032532519	400
0	1352	332.221032532519	401
0	1353	332.5	400
0	1356	332.747554746472	401
0	1357	332.747554746472	402
0	1358	334	401
0	1361	334.124690713731	402
0	1362	334.124690713731	403
0	1364	334.556844105491	404
0	1365	334.556844105491	405
0	1366	335.5	404
0	1369	336.263638405011	405
0	1370	336.263638405011	406
0	1372	336.932955018732	407
0	1373	336.932955018732	408
0	1374	337	407
0	1377	338.224492831405	408
0	1378	338.224492831405	409
0	1379	338.5	408
0	1382	339.443824545065	409
0	1383	339.443824545065	410
0	1385	339.815981339082	411
0	1386	339.815981339082	412
0	1387	340	411
0	1390	340.499755984486	412
0	1391	340.499755984486	413
0	1392	341.5	412
0	1395	342.557297874552	413
0	1396	342.557297874552	414
0	1397	343	413
0	1400	343.448191331884	414
0	1401	343.448191331884	415
0	1403	343.989305125458	416
0	1404	343.989305125458	417
0	1406	344.296073205787	418
0	1407	344.296073205787	419
0	1408	344.5	418
0	1411	344.602521474041	419
0	1412	344.602521474041	420
0	1414	345.262070335742	421
0	1415	345.262070335742	422
0	1417	345.910045156391	423
0	1418	345.910045156391	424
0	1419	346	423
0	1422	347.073957398482	424
0	1423	347.073957398482	425
0	1424	347.5	424
0	1427	348.369828645212	425
0	1428	348.369828645212	426
0	1430	348.918381140903	427
0	1431	348.918381140903	428
0	1432	349	427
0	1435	349.922990794339	428
0	1436	349.922990794339	429
0	1437	350.5	428
0	1440	351.358674714356	429
0	1441	351.358674714356	430
0	1442	352	429
0	1445	352.565829485457	430
0	1446	352.565829485457	431
0	1448	353.47790517554	432
0	1449	353.47790517554	433
0	1450	353.5	432
0	1453	354.825250358983	433
0	1454	354.825250358983	434
0	1455	355	433
0	1458	355.470926978677	434
0	1459	355.470926978677	435
0	1461	356.211834429895	436
0	1462	356.211834429895	437
0	1463	356.5	436
0	1466	356.935729127047	437
0	1467	356.935729127047	438
0	1468	358	437
0	1471	358.1935970637	438
0	1472	358.1935970637	439
0	1474	359.497706212985	440
0	1475	359.497706212985	441
0	1476	359.5	440
0	1479	360.89512468439	441
0	1480	360.89512468439	442
0	1481	361	441
0	1484	362.161468417676	442
0	1485	362.161468417676	443
0	1486	362.5	442
0	1489	362.860873258658	443
0	1490	362.860873258658	444
0	1491	364	443
0	1494	364.729034038807	444
0	1495	364.729034038807	445
0	1497	365.349671274232	446
0	1498	365.349671274232	447
0	1499	365.5	446
0	1502	366.33366357751	447
0	1503	366.33366357751	448
0	1504	367	447
0	1507	368.305696479208	448
0	1508	368.305696479208	449
0	1509	368.5	448
0	1512	369.196018067476	449
0	1513	369.196018067476	450
0	1514	370	449
0	1517	370.996890757534	450
0	1518	370.996890757534	451
0	1519	371.5	450
0	1522	372.274988075045	451
0	1523	372.274988075045	452
0	1525	372.858169542552	453
0	1526	372.858169542552	454
0	1527	373	453
0	1530	373.913465204228	454
0	1531	373.913465204228	455
0	1533	374.297277840265	456
0	1534	374.297277840265	457
0	1535	374.5	456
0	1538	374.996010030104	457
0	1539	374.996010030104	458
0	1540	376	457
0	1543	376.467868155264	458
0	1544	376.467868155264	459
0	1545	377.5	458
0	1548	378.131166594938	459
0	1549	378.131166594938	460
0	1550	379	459
0	1553	379.612602205684	460
0	1554	379.612602205684	461
0	1556	380.211680121229	462
0	1557	380.211680121229	463
0	1558	380.5	462
0	1561	381.373528501519	463
0	1562	381.373528501519	464
0	1563	382	463
0	1566	382.423187089463	464
0	1567	382.423187089463	465
0	1569	382.518561833127	466
0	1570	382.518561833127	467
0	1571	383.5	466
0	1574	383.53915845264	467
0	1575	383.53915845264	468
0	1576	385	467
0	1579	385.615834827727	468
0	1580	385.615834827727	469
0	1582	386.103178730935	470
0	1583	386.103178730935	471
0	1584	386.5	470
0	1587	386.855135495379	471
0	1588	386.855135495379	472
0	1589	388	471
0	1592	388.439967328548	472
0	1593	388.439967328548	473
0	1594	389.5	472
0	1597	389.64346221636	473
0	1598	389.64346221636	474
0	1600	390.132156994836	475
0	1601	390.132156994836	476
0	1602	391	475
0	1605	391.351018733205	476
0	1606	391.351018733205	477
0	1608	392.265727503304	478
0	1609	392.265727503304	479
0	1610	392.5	478
0	1613	393.360044432859	479
0	1614	393.360044432859	480
0	1616	393.444415120021	481
0	1617	393.444415120021	482
0	1618	394	481
0	1621	394.681434004489	482
0	1622	394.681434004489	483
0	1623	395.5	482
0	1626	396.266086393368	483
0	1627	396.266086393368	484
0	1629	396.990982093518	485
0	1630	396.990982093518	486
0	1631	397	485
0	1634	397.882895951616	486
0	1635	397.882895951616	487
0	1636	398.5	486
0	1639	399.057730999811	487
0	1640	399.057730999811	488
0	1642	399.492766766045	489
0	1643	399.492766766045	490
0	1644	400	489
0	1647	400.679225613665	490
0	1648	400.679225613665	491
0	1649	401.5	490
0	1652	402.109031734259	491
0	1653	402.109031734259	492
0	1655	402.145836748423	493
0	1656	402.145836748423	494
0	1657	403	493
0	1660	403.766246341822	494
0	1661	403.766246341822	495
0	1662	404.5	494
0	1665	404.571950858388	495
0	1666	404.571950858388	496
0	1668	405.532421101588	497
0	1669	405.532421101588	498
0	1670	406	497
0	1673	407.13587144977	498
0	1674	407.13587144977	499
0	1675	407.5	498
0	1678	408.905972300271	499
0	1679	408.905972300271	500
0	1680	409	499
0	1683	410.089945795145	500
0	1684	410.089945795145	501
0	1685	410.5	500
0	1688	411.303482538263	501
0	1689	411.303482538263	502
0	1690	412	501
0	1693	412.425656219818	502
0	1694	412.425656219818	503
0	1695	413.5	502
0	1698	414.15297919929	503
0	1699	414.15297919929	504
0	1700	415	503
0	1703	415.872057191046	504
0	1704	415.872057191046	505
0	1705	416.5	504
0	1708	416.542506955543	505
0	1709	416.542506955543	506
0	1711	416.866943495663	507
0	1712	416.866943495663	508
0	1714	417.63860786504	509
0	1715	417.63860786504	510
0	1716	418	509
0	1718	419.5	508
0	1721	419.631031873334	509
0	1722	419.631031873334	510
0	1723	421	509
0	1726	421.171745426305	510
0	1727	421.171745426305	511
0	1729	421.930565873353	512
0	1730	421.930565873353	513
0	1731	422.5	512
0	1734	422.831029611811	513
0	1735	422.831029611811	514
0	1737	423.344967517245	515
0	1738	423.344967517245	516
0	1739	424	515
0	1742	424.055257643393	516
0	1743	424.055257643393	517
0	1745	424.860380111567	518
0	1746	424.860380111567	519
0	1747	425.5	518
0	1750	425.54058779812	519
0	1751	425.54058779812	520
0	1752	427	519
0	1755	427.473781005417	520
0	1756	427.473781005417	521
0	1757	428.5	520
0	1760	428.909964337154	521
0	1761	428.909964337154	522
0	1762	430	521
0	1765	430.157079439914	522
0	1766	430.157079439914	523
0	1768	431.337683897477	524
0	1769	431.337683897477	525
0	1770	431.5	524
0	1773	431.719827846235	525
0	1774	431.719827846235	526
0	1776	431.995125686531	527
0	1777	431.995125686531	528
0	1778	433	527
0	1781	434.046457858674	528
0	1782	434.046457858674	529
0	1783	434.5	528
0	1786	435.12496611537	529
0	1787	435.12496611537	530
0	1789	435.623078827551	531
0	1790	435.623078827551	532
0	1791	436	531
0	1793	437.5	530
0	1796	437.715621988521	531
0	1797	437.715621988521	532
0	1799	438.516439112528	533
0	1800	438.516439112528	534
0	1801	439	533
0	1804	440.102407982663	534
0	1805	440.102407982663	535
0	1806	440.5	534
0	1809	441.331858726344	535
0	1810	441.331858726344	536
0	1811	442	535
0	1814	442.92585000188	536
0	1815	442.92585000188	537
0	1816	443.5	536
0	1819	443.701386272046	537
0	1820	443.701386272046	538
0	1822	444.472697044667	539
0	1823	444.472697044667	540
0	1824	445	539
0	1827	445.781260987855	540
0	1828	445.781260987855	541
0	1829	446.5	540
0	1832	447.123073142664	541
0	1833	447.123073142664	542
0	1835	447.204482956172	543
0	1836	447.204482956172	544
0	1838	447.874622382789	545
0	1839	447.874622382789	546
0	1840	448	545
0	1843	448.899511213815	546
0	1844	448.899511213815	547
0	1845	449.5	546
0	1848	449.843819433715	547
0	1849	449.843819433715	548
0	1851	450.020384181359	549
0	1852	450.020384181359	550
0	1853	451	549
0	1856	451.01705623686	550
0	1857	451.01705623686	551
0	1859	452.316568556469	552
0	1860	452.316568556469	553
0	1861	452.5	552
0	1864	453.320765659131	553
0	1865	453.320765659131	554
0	1866	454	553
0	1869	454.359797186624	554
0	1870	454.359797186624	555
0	1871	455.5	554
0	1874	456.372902593318	555
0	1875	456.372902593318	556
0	1876	457	555
0	1879	457.308751595672	556
0	1880	457.308751595672	557
0	1882	458.046037454867	558
0	1883	458.046037454867	559
0	1885	458.37116038517	560
0	1886	458.37116038517	561
0	1887	458.5	560
0	1890	459.304328671447	561
0	1891	459.304328671447	562
0	1892	460	561
0	1895	460.428656209052	562
0	1896	460.428656209052	563
0	1898	460.814775802515	564
0	1899	460.814775802515	565
0	1900	461.5	564
0	1903	461.926274888801	565
0	1904	461.926274888801	566
0	1906	462.714094010427	567
0	1907	462.714094010427	568
0	1908	463	567
0	1911	463.996883860955	568
0	1912	463.996883860955	569
0	1913	464.5	568
0	1916	464.892826464862	569
0	1917	464.892826464862	570
0	1918	466	569
0	1921	466.216638466372	570
0	1922	466.216638466372	571
0	1924	466.985324720416	572
0	1925	466.985324720416	573
0	1926	467.5	572
0	1929	468.357619760285	573
0	1930	468.357619760285	574
0	1932	468.806838372895	575
0	1933	468.806838372895	576
0	1934	469	575
0	1937	469.824266187736	576