version 3
run k_MM1_lbqf-20-20221127-16:03:35-25264
attr configname k_MM1_lbqf
attr datetime 20221127-16:03:35
attr datetimef 20221127-160335
attr experiment k_MM1_lbqf
attr inifile omnetpp.ini
attr iterationvars "$time=2.0, $num=5, $0=53542, $1=75335, $2=34542"
attr iterationvarsd time=2.0/num=5/53542/75335/34542
attr iterationvarsf time=2.0,num=5,53542,75335,34542-
attr measurement "$time=2.0, $num=5, $0=53542, $1=75335, $2=34542"
attr network lbqfkMM1
attr processid 25264
attr repetition 0
attr replication #0
attr resultdir results
attr runnumber 20
attr seedset 20
itervar num 5
itervar time 2.0
config description "MM1 module k-times lbqf"
config network lbqfkMM1
config **.interArrivalTime "truncnormal(uniform(0.5s, 1.5s), uniform(0.25s, 0.75s))"
config **.serviceTime 2.0s
config **.c 5
config **.capacity 10000
config record-eventlog false
config **.scalar-recording true
config **.vector-recording true
config repeat 4
config seed-1-mt 53542
config seed-2-mt 75335
config seed-3-mt 34542
config output-vector-file k_MM1_lbqf-5-2.0-results/0.vec
config output-scalar-file k_MM1_lbqf-5-2.0-results/0.sca

vector 0 lbqfkMM1.mm1[0] queueLength:vector ETV
attr interpolationmode none
attr recordingmode vector
attr title "queue length"
vector 1 lbqfkMM1.mm1[0] util:vector ETV
attr interpolationmode none
attr recordingmode vector
attr title resources
vector 2 lbqfkMM1.mm1[1] queueLength:vector ETV
attr interpolationmode none
attr recordingmode vector
attr title "queue length"
vector 3 lbqfkMM1.mm1[2] queueLength:vector ETV
attr interpolationmode none
attr recordingmode vector
attr title "queue length"
vector 4 lbqfkMM1.mm1[1] util:vector ETV
attr interpolationmode none
attr recordingmode vector
attr title resources
vector 5 lbqfkMM1.mm1[2] util:vector ETV
attr interpolationmode none
attr recordingmode vector
attr title resources
vector 6 lbqfkMM1.mm1[3] queueLength:vector ETV
attr interpolationmode none
attr recordingmode vector
attr title "queue length"
vector 7 lbqfkMM1.mm1[3] util:vector ETV
attr interpolationmode none
attr recordingmode vector
attr title resources
vector 8 lbqfkMM1.mm1[4] queueLength:vector ETV
attr interpolationmode none
attr recordingmode vector
attr title "queue length"
vector 9 lbqfkMM1.mm1[4] util:vector ETV
attr interpolationmode none
attr recordingmode vector
attr title resources
0	5	10	1
0	6	12	0
0	12	12.50911999744	1
0	13	12.50911999744	2
0	19	14	1
0	35	16	0
0	47	17.205002437806	1
0	48	17.205002437806	2
0	54	18	1
0	68	20	0
0	80	21.169208095042	1
0	81	21.169208095042	2
0	87	22	1
0	101	24	0
0	113	24.395760170498	1
0	114	24.395760170498	2
0	123	26	1
0	140	28	0
0	146	28.018957748334	1
0	147	28.018957748334	2
0	159	30	1
0	183	32	0
0	189	32.253982105694	1
0	190	32.253982105694	2
0	205	34	1
0	222	36	0
0	228	36.009436994888	1
0	229	36.009436994888	2
0	249	38	1
0	266	40	0
0	272	40.140978672746	1
0	273	40.140978672746	2
0	283	42	1
0	302	44	0
0	311	45.121854239119	1
0	312	45.121854239119	2
0	316	46	1
0	335	48	0
0	341	48.086498123042	1
0	342	48.086498123042	2
0	359	50	1
0	376	52	0
0	382	52.174528781243	1
0	383	52.174528781243	2
0	398	54	1
0	417	56	0
0	423	56.218806292674	1
0	424	56.218806292674	2
0	454	58	1
0	474	60	0
0	483	60.310390841982	1
0	484	60.310390841982	2
0	514	62	1
0	526	63.237978455107	2
0	527	63.237978455107	3
0	534	64	2
0	559	66	1
0	579	68	0
0	585	68.098848803126	1
0	586	68.098848803126	2
0	609	70	1
0	634	72	0
0	643	72.605524313371	1
0	644	72.605524313371	2
0	664	74	1
0	689	76	0
0	695	76.214288934124	1
0	696	76.214288934124	2
0	719	78	1
0	744	80	0
0	753	81.220635661633	1
0	754	81.220635661633	2
0	764	82	1
0	781	84	0
0	787	85.397692530488	1
0	788	85.397692530488	2
0	792	86	1
0	803	88	0
0	809	88.226277237336	1
0	810	88.226277237336	2
0	824	90	1
0	833	92	0
0	839	92.298432444039	1
0	840	92.298432444039	2
0	857	94	1
0	879	96	0
0	885	96.285702209468	1
0	886	96.285702209468	2
0	909	98	1
0	926	100	0
0	932	100.146422841149	1
0	933	100.146422841149	2
0	948	102	1
0	970	104	0
0	976	105.237737723426	1
0	977	105.237737723426	2
0	984	106	1
0	998	108	0
0	1004	108.180286101212	1
0	1005	108.180286101212	2
0	1012	110	1
0	1028	112	0
0	1034	112.043562484769	1
0	1035	112.043562484769	2
0	1047	114	1
0	1066	116	0
0	1075	116.735555407203	1
0	1076	116.735555407203	2
0	1083	118	1
0	1110	120	0
0	1116	121.171068101207	1
0	1117	121.171068101207	2
0	1127	122	1
0	1144	124	0
0	1150	125.084899036439	1
0	1151	125.084899036439	2
0	1155	126	1
0	1166	128	0
0	1172	129.151230091505	1
0	1173	129.151230091505	2
0	1182	130	1
0	1198	132	0
0	1207	132.362281953713	1
0	1208	132.362281953713	2
0	1220	134	1
0	1237	136	0
0	1243	137.01106067343	1
0	1244	137.01106067343	2
0	1251	138	1
0	1270	140	0
0	1276	140.212662954813	1
0	1277	140.212662954813	2
0	1294	142	1
0	1311	144	0
0	1317	144.03600486873	1
0	1318	144.03600486873	2
0	1338	146	1
0	1355	148	0
0	1361	148.215915237314	1
0	1362	148.215915237314	2
0	1377	150	1
0	1391	152	0
0	1397	152.620454652583	1
0	1398	152.620454652583	2
0	1410	154	1
0	1424	156	0
0	1433	157.519226758553	1
0	1434	157.519226758553	2
0	1438	158	1
0	1457	160	0
0	1463	160.53131279826	1
0	1464	160.53131279826	2
0	1476	162	1
0	1493	164	0
0	1499	164.13923457179	1
0	1500	164.13923457179	2
0	1512	166	1
0	1531	168	0
0	1537	168.230446967211	1
0	1538	168.230446967211	2
0	1553	170	1
0	1570	172	0
0	1576	172.048245535929	1
0	1577	172.048245535929	2
0	1594	174	1
0	1608	176	0
0	1624	178.540256174839	1
0	1641	180.540256174839	0
0	1647	181.351459772996	1
0	1648	181.351459772996	2
0	1655	182.540256174839	1
0	1674	184.540256174839	0
0	1680	184.651983420703	1
0	1681	184.651983420703	2
0	1703	186.540256174839	1
0	1709	187.103345188661	2
0	1710	187.103345188661	3
0	1728	188.540256174839	2
0	1748	190.540256174839	1
0	1770	192.540256174839	0
0	1785	194.223442243432	1
0	1786	194.223442243432	2
0	1787	194.540256174839	1
0	1801	196.540256174839	0
0	1807	196.637915025243	1
0	1808	196.637915025243	2
0	1835	198.540256174839	1
0	1855	200.540256174839	0
0	1861	200.750979856757	1
0	1862	200.750979856757	2
0	1880	202.540256174839	1
0	1899	204.540256174839	0
0	1914	205.830667807818	1
0	1915	205.830667807818	2
0	1921	206.540256174839	1
0	1943	208.540256174839	0
0	1958	210.206586764377	1
0	1959	210.206586764377	2
0	1960	210.540256174839	1
0	1977	212.540256174839	0
0	1983	213.253985814339	1
0	1984	213.253985814339	2
0	1996	214.540256174839	1
0	2007	216.540256174839	0
0	2013	217.106062977102	1
0	2014	217.106062977102	2
0	2031	218.540256174839	1
0	2053	220.540256174839	0
0	2062	221.355866052974	1
0	2063	221.355866052974	2
0	2075	222.540256174839	1
0	2097	224.540256174839	0
0	2103	224.907434797039	1
0	2104	224.907434797039	2
0	2119	226.540256174839	1
0	2136	228.540256174839	0
0	2145	229.593683137319	1
0	2146	229.593683137319	2
0	2153	230.540256174839	1
0	2167	232.540256174839	0
0	2173	232.756790452765	1
0	2174	232.756790452765	2
0	2183	234.540256174839	1
0	2199	236.540256174839	0
0	2214	237.76859157707	1
0	2215	237.76859157707	2
0	2216	238.540256174839	1
0	2238	240.540256174839	0
0	2247	241.839445660541	1
0	2248	241.839445660541	2
0	2252	242.540256174839	1
0	2276	244.540256174839	0
0	2282	245.229619028738	1
0	2283	245.229619028738	2
0	2293	246.540256174839	1
0	2320	248.540256174839	0
0	2326	249.415964368055	1
0	2327	249.415964368055	2
0	2342	250.540256174839	1
0	2367	252.540256174839	0
0	2373	252.917250483024	1
0	2374	252.917250483024	2
0	2389	254.540256174839	1
0	2411	256.540256174839	0
0	2417	256.637570806438	1
0	2418	256.637570806438	2
0	2428	258.540256174839	1
0	2447	260.540256174839	0
0	2453	261.048338079262	1
0	2454	261.048338079262	2
0	2466	262.540256174839	1
0	2493	264.540256174839	0
0	2499	265.629866781267	1
0	2500	265.629866781267	2
0	2510	266.540256174839	1
0	2532	268.540256174839	0
0	2538	269.047208980231	1
0	2539	269.047208980231	2
0	2554	270.540256174839	1
0	2578	272.540256174839	0
0	2584	273.211522041152	1
0	2585	273.211522041152	2
0	2603	274.540256174839	1
0	2628	276.540256174839	0
0	2634	277.223921444522	1
0	2635	277.223921444522	2
0	2650	278.540256174839	1
0	2685	280.540256174839	0
0	2691	281.201538145469	1
0	2692	281.201538145469	2
0	2710	282.540256174839	1
0	2735	284.540256174839	0
0	2741	285.063012034185	1
0	2742	285.063012034185	2
0	2760	286.540256174839	1
0	2782	288.540256174839	0
0	2788	289.596966486864	1
0	2789	289.596966486864	2
0	2809	290.540256174839	1
0	2831	292.540256174839	0
0	2837	292.551172690933	1
0	2838	292.551172690933	2
0	2861	294.540256174839	1
0	2881	296.540256174839	0
0	2887	296.935390491225	1
0	2888	296.935390491225	2
0	2903	298.540256174839	1
0	2928	300.540256174839	0
0	2934	301.044207284322	1
0	2935	301.044207284322	2
0	2945	302.540256174839	1
0	2959	304.540256174839	0
0	2965	304.737773195275	1
0	2966	304.737773195275	2
0	2980	306.540256174839	1
0	2999	308.540256174839	0
0	3005	309.124754358632	1
0	3006	309.124754358632	2
0	3016	310.540256174839	1
0	3038	312.540256174839	0
0	3047	313.508801504029	1
0	3048	313.508801504029	2
0	3057	314.540256174839	1
0	3076	316.540256174839	0
0	3091	317.982447763101	1
0	3092	317.982447763101	2
0	3093	318.540256174839	1
0	3115	320.540256174839	0
0	3124	321.508500755771	1
0	3125	321.508500755771	2
0	3134	322.540256174839	1
0	3158	324.540256174839	0
0	3164	324.973407073871	1
0	3165	324.973407073871	2
0	3188	326.540256174839	1
0	3213	328.540256174839	0
0	3222	329.445899246688	1
0	3223	329.445899246688	2
0	3233	330.540256174839	1
0	3258	332.540256174839	0
0	3264	332.544575143828	1
0	3265	332.544575143828	2
0	3282	334.540256174839	1
0	3294	336.540256174839	0
0	3300	336.585107702325	1
0	3301	336.585107702325	2
0	3311	338.540256174839	1
0	3327	340.540256174839	0
0	3333	340.97587715268	1
0	3334	340.97587715268	2
0	3346	342.540256174839	1
0	3365	344.540256174839	0
0	3371	345.497420420002	1
0	3372	345.497420420002	2
0	3382	346.540256174839	1
0	3399	348.540256174839	0
0	3405	349.192325855366	1
0	3406	349.192325855366	2
0	3415	350.540256174839	1
0	3431	352.540256174839	0
0	3440	353.369077329254	1
0	3441	353.369077329254	2
0	3453	354.540256174839	1
0	3475	356.540256174839	0
0	3481	356.958055869693	1
0	3482	356.958055869693	2
0	3492	358.540256174839	1
0	3514	360.540256174839	0
0	3520	360.7827620207	1
0	3521	360.7827620207	2
0	3538	362.540256174839	1
0	3555	364.540256174839	0
0	3561	364.929992268395	1
0	3562	364.929992268395	2
0	3572	366.540256174839	1
0	3591	368.540256174839	0
0	3597	369.641311212429	1
0	3598	369.641311212429	2
0	3605	370.540256174839	1
0	3629	372.540256174839	0
0	3638	373.885700563837	1
0	3639	373.885700563837	2
0	3646	374.540256174839	1
0	3668	376.540256174839	0
0	3677	377.983410355323	1
0	3678	377.983410355323	2
0	3682	378.540256174839	1
0	3706	380.540256174839	0
0	3715	381.942947068857	1
0	3716	381.942947068857	2
0	3728	382.540256174839	1
0	3745	384.540256174839	0
0	3751	384.695051807724	1
0	3752	384.695051807724	2
0	3769	386.540256174839	1
0	3788	388.540256174839	0
0	3797	389.044305292847	1
0	3798	389.044305292847	2
0	3818	390.540256174839	1
0	3843	392.540256174839	0
0	3852	393.493695999187	1
0	3853	393.493695999187	2
0	3868	394.540256174839	1
0	3888	396.540256174839	0
0	3894	396.841127707466	1
0	3895	396.841127707466	2
0	3907	398.540256174839	1
0	3926	400.540256174839	0
0	3932	400.667963135697	1
0	3933	400.667963135697	2
0	3948	402.540256174839	1
0	3975	404.540256174839	0
0	3981	405.505134454559	1
0	3982	405.505134454559	2
0	3995	406.540256174839	1
0	4020	408.540256174839	0
0	4026	409.113540593537	1
0	4027	409.113540593537	2
0	4034	410.540256174839	1
0	4053	412.540256174839	0
0	4059	413.382941845228	1
0	4060	413.382941845228	2
0	4072	414.540256174839	1
0	4096	416.540256174839	0
0	4105	417.65319005343	1
0	4106	417.65319005343	2
0	4116	418.540256174839	1
0	4146	420.540256174839	0
0	4152	420.923065597635	1
0	4153	420.923065597635	2
0	4168	422.540256174839	1
0	4185	424.540256174839	0
0	4191	425.615503400208	1
0	4192	425.615503400208	2
0	4199	426.540256174839	1
0	4218	428.540256174839	0
0	4227	429.943198441641	1
0	4228	429.943198441641	2
0	4232	430.540256174839	1
0	4246	432.540256174839	0
0	4252	433.256887241935	1
0	4253	433.256887241935	2
0	4262	434.540256174839	1
0	4273	436.540256174839	0
0	4279	436.788833799781	1
0	4280	436.788833799781	2
0	4292	438.540256174839	1
0	4314	440.540256174839	0
0	4323	441.775705907094	1
0	4324	441.775705907094	2
0	4331	442.540256174839	1
0	4350	444.540256174839	0
0	4356	444.847236205662	1
0	4357	444.847236205662	2
0	4369	446.540256174839	1
0	4391	448.540256174839	0
0	4397	448.564500352614	1
0	4398	448.564500352614	2
0	4418	450.540256174839	1
0	4435	452.540256174839	0
0	4441	452.850442088386	1
0	4442	452.850442088386	2
0	4462	454.540256174839	1
0	4479	456.540256174839	0
0	4485	457.035015902342	1
0	4486	457.035015902342	2
0	4506	458.540256174839	1
0	4528	460.540256174839	0
0	4534	460.676635837174	1
0	4535	460.676635837174	2
0	4558	462.540256174839	1
0	4583	464.540256174839	0
0	4589	464.868523540184	1
0	4590	464.868523540184	2
0	4608	466.540256174839	1
0	4638	468.540256174839	0
0	4644	468.719738386534	1
0	4645	468.719738386534	2
0	4668	470.540256174839	1
0	4685	472.540256174839	0
0	4691	472.812234712208	1
0	4692	472.812234712208	2
0	4717	474.540256174839	1
0	4742	476.540256174839	0
0	4748	476.638013873901	1
0	4749	476.638013873901	2
0	4762	478.540256174839	1
0	4792	480.540256174839	0
0	4801	481.196168542383	1
0	4802	481.196168542383	2
0	4822	482.540256174839	1
0	4842	484.540256174839	0
0	4854	486.217071012528	1
0	4855	486.217071012528	2
0	4859	486.540256174839	1
0	4873	488.540256174839	0
0	4879	489.807561304769	1
0	4880	489.807561304769	2
0	4884	490.540256174839	1
0	4905	492.540256174839	0
0	4911	493.203191757451	1
0	4912	493.203191757451	2
0	4927	494.540256174839	1
0	4949	496.540256174839	0
0	4955	497.496858685502	1
0	4956	497.496858685502	2
0	4971	498.540256174839	1
0	4998	500.540256174839	0
0	5013	502.152865585434	1
0	5014	502.152865585434	2
0	5018	502.540256174839	1
0	5043	504.540256174839	0
0	5049	504.61738509308	1
0	5050	504.61738509308	2
0	5062	506.540256174839	1
0	5081	508.540256174839	0
0	5087	508.606196806036	1
0	5088	508.606196806036	2
0	5103	510.540256174839	1
0	5120	512.540256174839	0
0	5126	513.159172802202	1
0	5127	513.159172802202	2
0	5144	514.540256174839	1
0	5161	516.540256174839	0
0	5167	516.895453323324	1
0	5168	516.895453323324	2
0	5188	518.540256174839	1
0	5208	520.540256174839	0
0	5214	520.561813963845	1
0	5215	520.561813963845	2
0	5230	522.540256174839	1
0	5254	524.540256174839	0
0	5260	524.56885630389	1
0	5261	524.56885630389	2
0	5276	526.540256174839	1
0	5311	528.540256174839	0
0	5323	529.522252223394	1
0	5324	529.522252223394	2
0	5346	530.540256174839	1
0	5366	532.540256174839	0
0	5375	533.168839583406	1
0	5376	533.168839583406	2
0	5391	534.540256174839	1
0	5424	536.303941619145	2
0	5425	536.303941619145	3
0	5426	536.540256174839	2
0	5451	538.540256174839	1
0	5476	540.540256174839	0
0	5482	540.93640683287	1
0	5483	540.93640683287	2
0	5506	542.540256174839	1
0	5531	544.540256174839	0
0	5537	544.853556032509	1
0	5538	544.853556032509	2
0	5561	546.540256174839	1
0	5586	548.540256174839	0
0	5598	549.354529656764	1
0	5599	549.354529656764	2
0	5606	550.540256174839	1
0	5626	552.540256174839	0
0	5632	552.858460967846	1
0	5633	552.858460967846	2
0	5648	554.540256174839	1
0	5667	556.540256174839	0
0	5673	556.638122122525	1
0	5674	556.638122122525	2
0	5691	558.540256174839	1
0	5713	560.540256174839	0
0	5719	560.833487346784	1
0	5720	560.833487346784	2
0	5738	562.540256174839	1
0	5755	564.540256174839	0
0	5761	565.424713438233	1
0	5762	565.424713438233	2
0	5774	566.540256174839	1
0	5788	568.540256174839	0
0	5794	569.081100049441	1
0	5795	569.081100049441	2
0	5810	570.540256174839	1
0	5834	572.540256174839	0
0	5840	572.661674870393	1
0	5841	572.661674870393	2
0	5864	574.540256174839	1
0	5883	575.921321790971	2
0	5884	575.921321790971	3
0	5894	576.540256174839	2
0	5924	578.540256174839	1
0	5947	580.20995740422	2
0	5948	580.20995740422	3
0	5949	580.540256174839	2
0	5969	582.540256174839	1
0	5999	584.540256174839	0
0	6008	585.977948733162	1
0	6009	585.977948733162	2
0	6024	586.540256174839	1
0	6044	588.540256174839	0
0	6050	589.181009470587	1
0	6051	589.181009470587	2
0	6063	590.540256174839	1
0	6090	592.540256174839	0
0	6096	593.765150113625	1
0	6097	593.765150113625	2
0	6107	594.540256174839	1
0	6129	596.540256174839	0
0	6135	597.627839287964	1
0	6136	597.627839287964	2
0	6146	598.540256174839	1
0	6165	600.540256174839	0
0	6171	601.866898184638	1
0	6172	601.866898184638	2
0	6179	602.540256174839	1
0	6198	604.540256174839	0
0	6204	605.271483946372	1
0	6205	605.271483946372	2
0	6212	606.540256174839	1
0	6236	608.540256174839	0
0	6242	609.039528243396	1
0	6243	609.039528243396	2
0	6258	610.540256174839	1
0	6283	612.540256174839	0
0	6289	612.575804501915	1
0	6290	612.575804501915	2
0	6310	614.540256174839	1
0	6332	616.540256174839	0
0	6341	617.155908430669	1
0	6342	617.155908430669	2
0	6354	618.540256174839	1
0	6374	620.540256174839	0
0	6380	620.972631346327	1
0	6381	620.972631346327	2
0	6396	622.540256174839	1
0	6415	624.540256174839	0
0	6421	625.278786759052	1
0	6422	625.278786759052	2
0	6434	626.540256174839	1
0	6453	628.540256174839	0
0	6459	629.73465629027	1
0	6460	629.73465629027	2
0	6470	630.540256174839	1
0	6487	632.540256174839	0
0	6493	632.589693253438	1
0	6494	632.589693253438	2
0	6506	634.540256174839	1
0	6530	636.540256174839	0
0	6542	638.162046839835	1
0	6543	638.162046839835	2
0	6547	638.540256174839	1
0	6569	640.540256174839	0
0	6581	642.264810354273	1
0	6582	642.264810354273	2
0	6583	642.540256174839	1
0	6602	644.540256174839	0
0	6608	645.300184814828	1
0	6609	645.300184814828	2
0	6621	646.540256174839	1
0	6643	648.540256174839	0
0	6649	649.634686840525	1
0	6650	649.634686840525	2
0	6668	650.540256174839	1
0	6690	652.540256174839	0
0	6696	653.355073668647	1
0	6697	653.355073668647	2
0	6712	654.540256174839	1
0	6734	656.540256174839	0
0	6740	657.174603830628	1
0	6741	657.174603830628	2
0	6756	658.540256174839	1
0	6773	660.540256174839	0
0	6779	661.468896856818	1
0	6780	661.468896856818	2
0	6787	662.540256174839	1
0	6803	664.540256174839	0
0	6809	665.92381556366	1
0	6810	665.92381556366	2
0	6817	666.540256174839	1
0	6831	668.540256174839	0
0	6837	669.021329341181	1
0	6838	669.021329341181	2
0	6847	670.540256174839	1
0	6868	672.540256174839	0
0	6880	673.462155901365	1
0	6881	673.462155901365	2
0	6893	674.540256174839	1
0	6918	676.540256174839	0
0	6924	676.54956888126	1
0	6925	676.54956888126	2
0	6935	678.540256174839	1
0	6962	680.540256174839	0
0	6981	682.686733513838	1
0	7001	684.686733513838	0
0	7007	685.072260390174	1
0	7008	685.072260390174	2
0	7020	686.686733513838	1
0	7034	688.686733513838	0
0	7040	689.565702676425	1
0	7041	689.565702676425	2
0	7048	690.686733513838	1
0	7072	692.686733513838	0
0	7078	692.732259235884	1
0	7079	692.732259235884	2
0	7094	694.686733513838	1
0	7121	696.53154229215	2
0	7122	696.53154229215	3
0	7126	696.686733513838	2
0	7151	698.686733513838	1
0	7176	700.686733513838	0
0	7182	701.51219470062	1
0	7183	701.51219470062	2
0	7196	702.686733513838	1
0	7221	704.686733513838	0
0	7237	706.911923031667	1
0	7244	708.911923031667	0
0	7250	708.924849024299	1
0	7251	708.924849024299	2
0	7257	710.911923031667	1
0	7278	712.911923031667	0
0	7290	714.203879877842	1
0	7291	714.203879877842	2
0	7295	714.911923031667	1
0	7312	716.911923031667	0
0	7318	717.615481672342	1
0	7319	717.615481672342	2
0	7331	718.911923031667	1
0	7345	720.911923031667	0
0	7351	721.686810013481	1
0	7352	721.686810013481	2
0	7356	722.911923031667	1
0	7372	724.911923031667	0
0	7384	725.622786328137	1
0	7385	725.622786328137	2
0	7399	726.911923031667	1
0	7416	728.911923031667	0
0	7425	729.640129378787	1
0	7426	729.640129378787	2
0	7433	730.911923031667	1
0	7452	732.911923031667	0
0	7458	733.828199016899	1
0	7459	733.828199016899	2
0	7471	734.911923031667	1
0	7485	736.911923031667	0
0	7491	737.401075304446	1
0	7492	737.401075304446	2
0	7504	738.911923031667	1
0	7523	740.911923031667	0
0	7532	742.434194418603	1
0	7533	742.434194418603	2
0	7540	742.911923031667	1
0	7562	744.911923031667	0
0	7571	746.047090661945	1
0	7572	746.047090661945	2
0	7581	746.911923031667	1
0	7600	748.911923031667	0
0	7615	750.839791368717	1
0	7616	750.839791368717	2
0	7617	750.911923031667	1
0	7634	752.911923031667	0
0	7640	753.909019611914	1
0	7641	753.909019611914	2
0	7650	754.911923031667	1
0	7661	756.911923031667	0
0	7667	756.915363748971	1
0	7668	756.915363748971	2
0	7685	758.911923031667	1
0	7707	760.911923031667	0
0	7716	761.945868554256	1
0	7717	761.945868554256	2
0	7724	762.911923031667	1
0	7746	764.911923031667	0
0	7761	766.544841821125	1
0	7762	766.544841821125	2
0	7763	766.911923031667	1
0	7782	768.911923031667	0
0	7788	768.931397016814	1
0	7789	768.931397016814	2
0	7801	770.911923031667	1
0	7823	772.911923031667	0
0	7832	773.169633738209	1
0	7833	773.169633738209	2
0	7845	774.911923031667	1
0	7859	776.911923031667	0
0	7865	777.001824988407	1
0	7866	777.001824988407	2
0	7878	778.911923031667	1
0	7897	780.911923031667	0
0	7903	782.010909590662	1
0	7904	782.010909590662	2
0	7914	782.911923031667	1
0	7941	784.911923031667	0
0	7947	785.88849329494	1
0	7948	785.88849329494	2
0	7963	786.911923031667	1
0	7990	788.911923031667	0
0	7996	789.828816914263	1
0	7997	789.828816914263	2
0	8020	790.911923031667	1
0	8040	792.911923031667	0
0	8046	793.597397819282	1
0	8047	793.597397819282	2
0	8062	794.911923031667	1
0	8084	796.911923031667	0
0	8090	798.119639750924	1
0	8091	798.119639750924	2
0	8106	798.911923031667	1
0	8128	800.911923031667	0
0	8140	802.420852728083	1
0	8141	802.420852728083	2
0	8145	802.911923031667	1
0	8172	804.911923031667	0
0	8178	805.417098511208	1
0	8179	805.417098511208	2
0	8189	806.911923031667	1
0	8221	808.911923031667	0
0	8227	809.717787202066	1
0	8228	809.717787202066	2
0	8241	810.911923031667	1
0	8266	812.911923031667	0
0	8272	813.768937567054	1
0	8273	813.768937567054	2
0	8285	814.911923031667	1
0	8299	816.911923031667	0
0	8305	817.314593882188	1
0	8306	817.314593882188	2
0	8318	818.911923031667	1
0	8340	820.911923031667	0
0	8346	821.157827501458	1
0	8347	821.157827501458	2
0	8362	822.911923031667	1
0	8376	824.911923031667	0
0	8382	825.205128083264	1
0	8383	825.205128083264	2
0	8390	826.911923031667	1
0	8414	828.911923031667	0
0	8433	831.040989103437	1
0	8448	833.040989103437	0
0	8454	833.127849591394	1
0	8455	833.127849591394	2
0	8474	835.040989103437	1
0	8501	837.040989103437	0
0	8510	837.590751327917	1
0	8511	837.590751327917	2
0	8526	839.040989103437	1
0	8556	841.040989103437	0
0	8571	842.753891248013	1
0	8572	842.753891248013	2
0	8576	843.040989103437	1
0	8596	845.040989103437	0
0	8602	845.06939523632	1
0	8603	845.06939523632	2
0	8623	847.040989103437	1
0	8647	849.040989103437	0
0	8662	850.632985561499	1
0	8663	850.632985561499	2
0	8667	851.040989103437	1
0	8692	853.040989103437	0
0	8707	854.694877400173	1
0	8708	854.694877400173	2
0	8709	855.040989103437	1
0	8723	857.040989103437	0
0	8729	857.552196272577	1
0	8730	857.552196272577	2
0	8739	859.040989103437	1
0	8750	861.040989103437	0
0	8756	861.454401780112	1
0	8757	861.454401780112	2
0	8774	863.040989103437	1
0	8793	864.411298643471	2
0	8794	864.411298643471	3
0	8798	865.040989103437	2
0	8828	867.040989103437	1
0	8848	869.040989103437	0
0	8863	870.360207927024	1
0	8864	870.360207927024	2
0	8873	871.040989103437	1
0	8903	873.040989103437	0
0	8909	873.468904757604	1
0	8910	873.468904757604	2
0	8928	875.040989103437	1
0	8953	877.040989103437	0
0	8959	877.503122734902	1
0	8960	877.503122734902	2
0	8975	879.040989103437	1
0	8997	881.040989103437	0
0	9003	881.576920968914	1
0	9004	881.576920968914	2
0	9019	883.040989103437	1
0	9046	885.040989103437	0
0	9052	885.250433752615	1
0	9053	885.250433752615	2
0	9076	887.040989103437	1
0	9096	889.040989103437	0
0	9105	890.292359313308	1
0	9106	890.292359313308	2
0	9113	891.040989103437	1
0	9135	893.040989103437	0
0	9144	894.857474915102	1
0	9145	894.857474915102	2
0	9149	895.040989103437	1
0	9168	897.040989103437	0
0	9174	897.618833579374	1
0	9175	897.618833579374	2
0	9187	899.040989103437	1
0	9201	901.040989103437	0
0	9207	901.458819795444	1
0	9208	901.458819795444	2
0	9220	903.040989103437	1
0	9237	905.040989103437	0
0	9243	905.574815719755	1
0	9244	905.574815719755	2
0	9256	907.040989103437	1
0	9272	909.040989103437	0
0	9281	909.946101180731	1
0	9282	909.946101180731	2
0	9294	911.040989103437	1
0	9311	913.040989103437	0
0	9317	913.454846405134	1
0	9318	913.454846405134	2
0	9330	915.040989103437	1
0	9354	917.040989103437	0
0	9360	917.399307838356	1
0	9361	917.399307838356	2
0	9374	919.040989103437	1
0	9404	921.040989103437	0
0	9410	921.336527519181	1
0	9411	921.336527519181	2
0	9426	923.040989103437	1
0	9446	925.040989103437	0
0	9452	925.251291227259	1
0	9453	925.251291227259	2
0	9465	927.040989103437	1
0	9481	929.040989103437	0
0	9490	929.424968039058	1
0	9491	929.424968039058	2
0	9503	931.040989103437	1
0	9525	933.040989103437	0
0	9531	933.173024706621	1
0	9532	933.173024706621	2
0	9542	935.040989103437	1
0	9564	937.040989103437	0
0	9570	937.167677596881	1
0	9571	937.167677596881	2
0	9588	939.040989103437	1
0	9610	941.040989103437	0
0	9619	941.935049590065	1
0	9620	941.935049590065	2
0	9632	943.040989103437	1
0	9662	945.040989103437	0
0	9668	945.57215025912	1
0	9669	945.57215025912	2
0	9687	947.040989103437	1
0	9707	949.040989103437	0
0	9713	949.655401823137	1
0	9714	949.655401823137	2
0	9729	951.040989103437	1
0	9750	953.040989103437	0
0	9759	954.121116233186	1
0	9760	954.121116233186	2
0	9775	955.040989103437	1
0	9800	957.040989103437	0
0	9806	957.372484221348	1
0	9807	957.372484221348	2
0	9822	959.040989103437	1
0	9844	961.040989103437	0
0	9850	961.499216301933	1
0	9851	961.499216301933	2
0	9871	963.040989103437	1
0	9888	965.040989103437	0
0	9894	965.042853726453	1
0	9895	965.042853726453	2
0	9905	967.040989103437	1
0	9927	969.040989103437	0
0	9933	969.363563459312	1
0	9934	969.363563459312	2
0	9946	971.040989103437	1
0	9960	973.040989103437	0
0	9966	973.98251288572	1
0	9967	973.98251288572	2
0	9974	975.040989103437	1
0	9998	977.040989103437	0
0	10004	977.695379799051	1
0	10005	977.695379799051	2
0	10015	979.040989103437	1
0	10042	981.040989103437	0
0	10048	982.285134636235	1
0	10049	982.285134636235	2
0	10064	983.040989103437	1
0	10086	985.040989103437	0
0	10092	985.860557787706	1
0	10093	985.860557787706	2
0	10113	987.040989103437	1
0	10138	989.040989103437	0
0	10144	989.755073970516	1
0	10145	989.755073970516	2
0	10158	991.040989103437	1
0	10185	993.040989103437	0
0	10191	993.898446869348	1
0	10192	993.898446869348	2
0	10202	995.040989103437	1
0	10229	997.040989103437	0
0	10235	997.301014664684	1
0	10236	997.301014664684	2
0	10256	999.040989103437	1
0	10281	1001.040989103437	0
0	10290	1002.291952438166	1
0	10291	1002.291952438166	2
0	10301	1003.040989103437	1
0	10318	1005.040989103437	0
0	10324	1005.269465918808	1
0	10325	1005.269465918808	2
0	10339	1007.040989103437	1
0	10366	1008.779836031983	2
0	10367	1008.779836031983	3
0	10368	1009.040989103437	2
0	10388	1011.040989103437	1
0	10408	1013.040989103437	0
0	10414	1013.591519698133	1
0	10415	1013.591519698133	2
0	10427	1015.040989103437	1
0	10446	1017.040989103437	0
0	10452	1017.312443246518	1
0	10453	1017.312443246518	2
0	10473	1019.040989103437	1
0	10490	1021.040989103437	0
0	10496	1021.073247959505	1
0	10497	1021.073247959505	2
0	10512	1023.040989103437	1
0	10534	1025.040989103437	0
0	10543	1025.564092750285	1
0	10544	1025.564092750285	2
0	10556	1027.040989103437	1
0	10578	1029.040989103437	0
0	10590	1030.967807798348	1
0	10591	1030.967807798348	2
0	10595	1031.040989103437	1
0	10612	1033.040989103437	0
0	10618	1033.141529517215	1
0	10619	1033.141529517215	2
0	10631	1035.040989103437	1
0	10642	1037.040989103437	0
0	10648	1038.367508338124	1
0	10649	1038.367508338124	2
0	10661	1039.040989103437	1
0	10675	1041.040989103437	0
0	10681	1041.650823359337	1
0	10682	1041.650823359337	2
0	10699	1043.040989103437	1
0	10726	1045.040989103437	0
0	10732	1045.584636070504	1
0	10733	1045.584636070504	2
0	10746	1047.040989103437	1
0	10771	1049.040989103437	0
0	10780	1050.020528492774	1
0	10781	1050.020528492774	2
0	10788	1051.040989103437	1
0	10807	1053.040989103437	0
0	10813	1054.169085588031	1
0	10814	1054.169085588031	2
0	10821	1055.040989103437	1
0	10835	1057.040989103437	0
0	10841	1057.881041164425	1
0	10842	1057.881041164425	2
0	10846	1059.040989103437	1
0	10857	1061.040989103437	0
0	10863	1061.27759593485	1
0	10864	1061.27759593485	2
0	10873	1063.040989103437	1
0	10884	1065.040989103437	0
0	10900	1067.401993190219	1
0	10907	1069.401993190219	0
0	10913	1069.755453992331	1
0	10914	1069.755453992331	2
0	10925	1071.401993190219	1
0	10939	1073.401993190219	0
0	10945	1073.805494710513	1
0	10946	1073.805494710513	2
0	10963	1075.401993190219	1
0	10985	1077.401993190219	0
0	10994	1078.019577442263	1
0	10995	1078.019577442263	2
0	11012	1079.401993190219	1
0	11032	1081.401993190219	0
0	11041	1082.99506490718	1
0	11042	1082.99506490718	2
0	11052	1083.401993190219	1
0	11068	1085.401993190219	0
0	11074	1085.853988390312	1
0	11075	1085.853988390312	2
0	11092	1087.401993190219	1
0	11119	1089.401993190219	0
0	11134	1090.790205986434	1
0	11135	1090.790205986434	2
0	11139	1091.401993190219	1
0	11159	1093.401993190219	0
0	11168	1094.047551257154	1
0	11169	1094.047551257154	2
0	11173	1095.401993190219	1
0	11189	1097.401993190219	0
0	11201	1098.493043400443	1
0	11202	1098.493043400443	2
0	11203	1099.401993190219	1
0	11227	1101.401993190219	0
0	11239	1102.762921443811	1
0	11240	1102.762921443811	2
0	11244	1103.401993190219	1
0	11266	1105.401993190219	0
0	11282	1107.447972453487	1
0	11289	1109.447972453487	0
0	11295	1109.471137398678	1
0	11296	1109.471137398678	2
0	11305	1111.447972453487	1
0	11316	1113.447972453487	0
0	11322	1113.524154326346	1
0	11323	1113.524154326346	2
0	11335	1115.447972453487	1
0	11359	1117.447972453487	0
0	11368	1118.386952373784	1
0	11369	1118.386952373784	2
0	11376	1119.447972453487	1
0	11398	1121.447972453487	0
0	11410	1122.433426184258	1
0	11411	1122.433426184258	2
0	11412	1123.447972453487	1
0	11436	1125.447972453487	0
0	11442	1125.851174635986	1
0	11443	1125.851174635986	2
0	11458	1127.447972453487	1