version 3
run k_MM1_lbqf-21-20221127-16:03:35-25264
attr configname k_MM1_lbqf
attr datetime 20221127-16:03:35
attr datetimef 20221127-160335
attr experiment k_MM1_lbqf
attr inifile omnetpp.ini
attr iterationvars "$time=2.0, $num=5, $0=45732, $1=35463, $2=67563"
attr iterationvarsd time=2.0/num=5/45732/35463/67563
attr iterationvarsf time=2.0,num=5,45732,35463,67563-
attr measurement "$time=2.0, $num=5, $0=45732, $1=35463, $2=67563"
attr network lbqfkMM1
attr processid 25264
attr repetition 1
attr replication #1
attr resultdir results
attr runnumber 21
attr seedset 21
itervar num 5
itervar time 2.0
config description "MM1 module k-times lbqf"
config network lbqfkMM1
config **.interArrivalTime "truncnormal(uniform(0.5s, 1.5s), uniform(0.25s, 0.75s))"
config **.serviceTime 2.0s
config **.c 5
config **.capacity 10000
config record-eventlog false
config **.scalar-recording true
config **.vector-recording true
config repeat 4
config seed-1-mt 45732
config seed-2-mt 35463
config seed-3-mt 67563
config output-vector-file k_MM1_lbqf-5-2.0-results/1.vec
config output-scalar-file k_MM1_lbqf-5-2.0-results/1.sca

vector 0 lbqfkMM1.mm1[0] queueLength:vector ETV
attr interpolationmode none
attr recordingmode vector
attr title "queue length"
vector 1 lbqfkMM1.mm1[1] queueLength:vector ETV
attr interpolationmode none
attr recordingmode vector
attr title "queue length"
vector 2 lbqfkMM1.mm1[2] queueLength:vector ETV
attr interpolationmode none
attr recordingmode vector
attr title "queue length"
vector 3 lbqfkMM1.mm1[0] util:vector ETV
attr interpolationmode none
attr recordingmode vector
attr title resources
vector 4 lbqfkMM1.mm1[1] util:vector ETV
attr interpolationmode none
attr recordingmode vector
attr title resources
vector 5 lbqfkMM1.mm1[2] util:vector ETV
attr interpolationmode none
attr recordingmode vector
attr title resources
vector 6 lbqfkMM1.mm1[3] queueLength:vector ETV
attr interpolationmode none
attr recordingmode vector
attr title "queue length"
vector 7 lbqfkMM1.mm1[4] queueLength:vector ETV
attr interpolationmode none
attr recordingmode vector
attr title "queue length"
vector 8 lbqfkMM1.mm1[3] util:vector ETV
attr interpolationmode none
attr recordingmode vector
attr title resources
vector 9 lbqfkMM1.mm1[4] util:vector ETV
attr interpolationmode none
attr recordingmode vector
attr title resources
0	5	10	1
0	16	12	0
0	25	12.406930210974	1
0	26	12.406930210974	2
0	40	14	1
0	59	16	0
0	71	17.491462917569	1
0	72	17.491462917569	2
0	84	18	1
0	104	20	0
0	113	20.491019743444	1
0	114	20.491019743444	2
0	118	22	1
0	132	24	0
0	138	24.096563174606	1
0	139	24.096563174606	2
0	153	26	1
0	167	28	0
0	173	28.024746154868	1
0	174	28.024746154868	2
0	189	30	1
0	203	32	0
0	212	32.793423815465	1
0	213	32.793423815465	2
0	222	34	1
0	236	36	0
0	242	36.030326625979	1
0	243	36.030326625979	2
0	255	38	1
0	272	40	0
0	278	40.004963714027	1
0	279	40.004963714027	2
0	296	42	1
0	323	44	0
0	332	44.401838286387	1
0	333	44.401838286387	2
0	345	46	1
0	367	48	0
0	382	49.017380952007	1
0	383	49.017380952007	2
0	389	50	1
0	406	52	0
0	421	53.383890022611	1
0	422	53.383890022611	2
0	423	54	1
0	442	56	0
0	451	56.584477847849	1
0	452	56.584477847849	2
0	461	58	1
0	480	60	0
0	489	60.638102850647	1
0	490	60.638102850647	2
0	502	62	1
0	524	64	0
0	536	65.38174837213	1
0	537	65.38174837213	2
0	541	66	1
0	558	68	0
0	564	68.065826058832	1
0	565	68.065826058832	2
0	577	70	1
0	591	72	0
0	597	72.335967719431	1
0	598	72.335967719431	2
0	610	74	1
0	631	76	0
0	637	76.130067260386	1
0	638	76.130067260386	2
0	661	78	1
0	686	80	0
0	701	81.418561134378	1
0	702	81.418561134378	2
0	706	82	1
0	731	84	0
0	737	84.438573112567	1
0	738	84.438573112567	2
0	755	86	1
0	774	87.431500515058	2
0	775	87.431500515058	3
0	784	88	2
0	809	90	1
0	829	91.443665195583	2
0	830	91.443665195583	3
0	834	92	2
0	859	94	1
0	874	96	0
0	883	96.300147535697	1
0	884	96.300147535697	2
0	903	98	1
0	920	100	0
0	926	100.18828208845	1
0	927	100.18828208845	2
0	942	102	1
0	954	104	0
0	960	104.347084830102	1
0	961	104.347084830102	2
0	973	106	1
0	984	108	0
0	990	108.543715919958	1
0	991	108.543715919958	2
0	1003	110	1
0	1022	112	0
0	1028	112.786093670292	1
0	1029	112.786093670292	2
0	1039	114	1
0	1061	116	0
0	1067	116.549160031467	1
0	1068	116.549160031467	2
0	1080	118	1
0	1099	120	0
0	1105	120.097924945316	1
0	1106	120.097924945316	2
0	1126	122	1
0	1143	124	0
0	1149	124.178906698177	1
0	1150	124.178906698177	2
0	1170	126	1
0	1192	128	0
0	1198	128.448044846966	1
0	1199	128.448044846966	2
0	1222	130	1
0	1242	132	0
0	1251	133.122070494671	1
0	1252	133.122070494671	2
0	1259	134	1
0	1281	136	0
0	1290	137.046059238614	1
0	1291	137.046059238614	2
0	1305	138	1
0	1314	140	0
0	1320	140.09797823768	1
0	1321	140.09797823768	2
0	1333	142	1
0	1347	144	0
0	1353	144.501713005256	1
0	1354	144.501713005256	2
0	1366	146	1
0	1380	148	0
0	1386	148.268877978895	1
0	1387	148.268877978895	2
0	1399	150	1
0	1426	152	0
0	1432	152.337527555767	1
0	1433	152.337527555767	2
0	1443	154	1
0	1475	156	0
0	1497	158.254322822189	1
0	1515	160.254322822189	0
0	1524	160.895835063866	1
0	1525	160.895835063866	2
0	1534	162.254322822189	1
0	1555	164.254322822189	0
0	1561	164.2772754094	1
0	1562	164.2772754094	2
0	1580	166.254322822189	1
0	1605	168.254322822189	0
0	1614	168.619440445515	1
0	1615	168.619440445515	2
0	1627	170.254322822189	1
0	1649	172.254322822189	0
0	1658	172.861233712738	1
0	1659	172.861233712738	2
0	1671	174.254322822189	1
0	1698	176.254322822189	0
0	1707	177.595198351213	1
0	1708	177.595198351213	2
0	1718	178.254322822189	1
0	1743	180.254322822189	0
0	1749	180.596426924479	1
0	1750	180.596426924479	2
0	1772	182.254322822189	1
0	1797	184.254322822189	0
0	1812	185.881474364045	1
0	1813	185.881474364045	2
0	1817	186.254322822189	1
0	1839	188.254322822189	0
0	1848	189.079372955772	1
0	1849	189.079372955772	2
0	1861	190.254322822189	1
0	1880	192.254322822189	0
0	1886	192.976791949734	1
0	1887	192.976791949734	2
0	1897	194.254322822189	1
0	1919	196.254322822189	0
0	1925	197.166659436743	1
0	1926	197.166659436743	2
0	1933	198.254322822189	1
0	1947	200.254322822189	0
0	1953	201.335195322933	1
0	1954	201.335195322933	2
0	1963	202.254322822189	1
0	1982	204.254322822189	0
0	1988	204.477805061565	1
0	1989	204.477805061565	2
0	2009	206.254322822189	1
0	2034	208.254322822189	0
0	2046	209.64216507121	1
0	2047	209.64216507121	2
0	2051	210.254322822189	1
0	2070	212.254322822189	0
0	2076	213.126422038797	1
0	2077	213.126422038797	2
0	2084	214.254322822189	1
0	2098	216.254322822189	0
0	2104	217.298993576368	1
0	2105	217.298993576368	2
0	2117	218.254322822189	1
0	2128	220.254322822189	0
0	2134	220.687432540236	1
0	2135	220.687432540236	2
0	2147	222.254322822189	1
0	2169	224.254322822189	0
0	2175	224.867408824148	1
0	2176	224.867408824148	2
0	2191	226.254322822189	1
0	2205	228.254322822189	0
0	2211	228.893155768074	1
0	2212	228.893155768074	2
0	2229	230.254322822189	1
0	2246	232.254322822189	0
0	2255	233.010556520408	1
0	2256	233.010556520408	2
0	2263	234.254322822189	1
0	2282	236.254322822189	0
0	2288	236.669695266778	1
0	2289	236.669695266778	2
0	2301	238.254322822189	1
0	2315	240.254322822189	0
0	2321	240.353246202459	1
0	2322	240.353246202459	2
0	2329	242.254322822189	1
0	2348	244.254322822189	0
0	2354	244.945277681705	1
0	2355	244.945277681705	2
0	2367	246.254322822189	1
0	2384	248.254322822189	0
0	2390	248.764267614687	1
0	2391	248.764267614687	2
0	2403	250.254322822189	1
0	2417	252.254322822189	0
0	2423	252.419402325033	1
0	2424	252.419402325033	2
0	2436	254.254322822189	1
0	2450	256.254322822189	0
0	2456	256.546637291964	1
0	2457	256.546637291964	2
0	2474	258.254322822189	1
0	2493	260.254322822189	0
0	2499	260.654059554733	1
0	2500	260.654059554733	2
0	2515	262.254322822189	1
0	2542	264.254322822189	0
0	2564	266.426410350387	1
0	2582	268.426410350387	0
0	2588	268.872076407503	1
0	2589	268.872076407503	2
0	2596	270.426410350387	1
0	2617	272.426410350387	0
0	2626	273.873508393024	1
0	2627	273.873508393024	2
0	2634	274.426410350387	1
0	2651	276.426410350387	0
0	2657	277.143229728416	1
0	2658	277.143229728416	2
0	2667	278.426410350387	1
0	2673	280.426410350387	0
0	2679	280.688085030636	1
0	2680	280.688085030636	2
0	2689	282.426410350387	1
0	2713	284.426410350387	0
0	2722	285.57087164096	1
0	2723	285.57087164096	2
0	2735	286.426410350387	1
0	2752	288.426410350387	0
0	2758	289.149837692596	1
0	2759	289.149837692596	2
0	2769	290.426410350387	1
0	2788	292.426410350387	0
0	2794	293.584138273992	1
0	2795	293.584138273992	2
0	2807	294.426410350387	1
0	2829	296.426410350387	0
0	2835	297.618568270429	1
0	2836	297.618568270429	2
0	2851	298.426410350387	1
0	2873	300.426410350387	0
0	2879	301.318732045271	1
0	2880	301.318732045271	2
0	2890	302.426410350387	1
0	2904	304.426410350387	0
0	2910	305.097417145886	1
0	2911	305.097417145886	2
0	2920	306.426410350387	1
0	2939	308.426410350387	0
0	2945	308.625219873947	1
0	2946	308.625219873947	2
0	2966	310.426410350387	1
0	2996	312.426410350387	0
0	3002	313.001216741632	1
0	3003	313.001216741632	2
0	3021	314.426410350387	1
0	3048	316.426410350387	0
0	3054	317.232886922255	1
0	3055	317.232886922255	2
0	3073	318.426410350387	1
0	3098	320.426410350387	0
0	3104	321.407082973403	1
0	3105	321.407082973403	2
0	3118	322.426410350387	1
0	3145	324.426410350387	0
0	3151	325.070153151559	1
0	3152	325.070153151559	2
0	3172	326.426410350387	1
0	3197	328.426410350387	0
0	3203	328.741258558055	1
0	3204	328.741258558055	2
0	3227	330.426410350387	1
0	3252	332.426410350387	0
0	3258	332.792304311383	1
0	3259	332.792304311383	2
0	3277	334.426410350387	1
0	3299	336.426410350387	0
0	3305	337.323151251619	1
0	3306	337.323151251619	2
0	3321	338.426410350387	1
0	3348	340.426410350387	0
0	3354	341.380816126857	1
0	3355	341.380816126857	2
0	3373	342.426410350387	1
0	3398	344.426410350387	0
0	3404	344.83609057037	1
0	3405	344.83609057037	2
0	3420	346.426410350387	1
0	3440	348.426410350387	0
0	3446	348.477932251782	1
0	3447	348.477932251782	2
0	3464	350.426410350387	1
0	3486	352.426410350387	0
0	3492	352.906119368622	1
0	3493	352.906119368622	2
0	3508	354.426410350387	1
0	3535	356.426410350387	0
0	3541	356.622399548709	1
0	3542	356.622399548709	2
0	3562	358.426410350387	1
0	3568	358.922011079733	2
0	3569	358.922011079733	3
0	3587	360.426410350387	2
0	3617	362.426410350387	1
0	3623	362.779094466751	2
0	3624	362.779094466751	3
0	3642	364.426410350387	2
0	3667	366.426410350387	1
0	3678	367.160422514517	2
0	3679	367.160422514517	3
0	3697	368.426410350387	2
0	3727	370.426410350387	1
0	3747	372.426410350387	0
0	3753	372.894485622098	1
0	3754	372.894485622098	2
0	3772	374.426410350387	1
0	3799	376.426410350387	0
0	3805	377.181488606039	1
0	3806	377.181488606039	2
0	3821	378.426410350387	1
0	3846	380.426410350387	0
0	3855	381.799044976849	1
0	3856	381.799044976849	2
0	3866	382.426410350387	1
0	3885	384.426410350387	0
0	3894	385.330002329591	1
0	3895	385.330002329591	2
0	3899	386.426410350387	1
0	3923	388.426410350387	0
0	3932	389.320679737474	1
0	3933	389.320679737474	2
0	3940	390.426410350387	1
0	3967	392.426410350387	0
0	3973	393.097765127635	1
0	3974	393.097765127635	2
0	3989	394.426410350387	1
0	4011	396.426410350387	0
0	4017	396.539560749423	1
0	4018	396.539560749423	2
0	4033	398.426410350387	1
0	4053	400.426410350387	0
0	4059	400.988942024291	1
0	4060	400.988942024291	2
0	4075	402.426410350387	1
0	4094	404.426410350387	0
0	4100	405.192146632509	1
0	4101	405.192146632509	2
0	4108	406.426410350387	1
0	4122	408.426410350387	0
0	4128	408.66577842296	1
0	4129	408.66577842296	2
0	4136	410.426410350387	1
0	4152	412.426410350387	0
0	4158	413.62559866702	1
0	4159	413.62559866702	2
0	4166	414.426410350387	1
0	4190	416.426410350387	0
0	4196	417.400875331751	1
0	4197	417.400875331751	2
0	4207	418.426410350387	1
0	4229	420.426410350387	0
0	4235	420.919764438665	1
0	4236	420.919764438665	2
0	4253	422.426410350387	1
0	4278	424.426410350387	0
0	4287	425.315774186861	1
0	4288	425.315774186861	2
0	4308	426.426410350387	1
0	4333	428.426410350387	0
0	4339	429.134846701597	1
0	4340	429.134846701597	2
0	4358	430.426410350387	1
0	4380	432.426410350387	0
0	4386	433.110276404172	1
0	4387	433.110276404172	2
0	4402	434.426410350387	1
0	4429	436.426410350387	0
0	4435	437.00253917505	1
0	4436	437.00253917505	2
0	4451	438.426410350387	1
0	4473	440.426410350387	0
0	4479	440.844264318094	1
0	4480	440.844264318094	2
0	4490	442.426410350387	1
0	4512	444.426410350387	0
0	4518	445.213617402666	1
0	4519	445.213617402666	2
0	4534	446.426410350387	1
0	4551	448.426410350387	0
0	4557	448.51755352981	1
0	4558	448.51755352981	2
0	4570	450.426410350387	1
0	4589	452.426410350387	0
0	4595	452.773031371796	1
0	4596	452.773031371796	2
0	4621	454.426410350387	1
0	4641	456.426410350387	0
0	4647	457.293624330656	1
0	4648	457.293624330656	2
0	4661	458.426410350387	1
0	4685	460.426410350387	0
0	4691	460.72163706828	1
0	4692	460.72163706828	2
0	4702	462.426410350387	1
0	4719	464.426410350387	0
0	4725	464.766574004628	1
0	4726	464.766574004628	2
0	4735	466.426410350387	1
0	4759	468.426410350387	0
0	4765	468.632214870997	1
0	4766	468.632214870997	2
0	4786	470.426410350387	1
0	4806	472.426410350387	0
0	4815	473.237406328638	1
0	4816	473.237406328638	2
0	4826	474.426410350387	1
0	4840	476.426410350387	0
0	4846	476.522762049031	1
0	4847	476.522762049031	2
0	4856	478.426410350387	1
0	4870	480.426410350387	0
0	4876	481.334957307339	1
0	4877	481.334957307339	2
0	4889	482.426410350387	1
0	4908	484.426410350387	0
0	4914	484.664882957967	1
0	4915	484.664882957967	2
0	4930	486.426410350387	1
0	4952	488.426410350387	0
0	4958	489.349518231619	1
0	4959	489.349518231619	2
0	4969	490.426410350387	1
0	4988	492.426410350387	0
0	4994	493.138723467736	1
0	4995	493.138723467736	2
0	5002	494.426410350387	1
0	5021	496.426410350387	0
0	5027	498.192215185135	1
0	5028	498.192215185135	2
0	5035	498.426410350387	1
0	5049	500.426410350387	0
0	5055	500.803155034354	1
0	5056	500.803155034354	2
0	5065	502.426410350387	1
0	5089	504.426410350387	0
0	5095	504.867244628653	1
0	5096	504.867244628653	2
0	5116	506.426410350387	1
0	5141	508.426410350387	0
0	5150	509.158131286011	1
0	5151	509.158131286011	2
0	5166	510.426410350387	1
0	5188	512.426410350387	0
0	5194	512.793855802467	1
0	5195	512.793855802467	2
0	5215	514.426410350387	1
0	5242	515.656930572912	2
0	5243	515.656930572912	3
0	5250	516.426410350387	2
0	5275	518.426410350387	1
0	5300	520.426410350387	0
0	5309	520.97597910281	1
0	5310	520.97597910281	2
0	5330	522.426410350387	1
0	5350	524.426410350387	0
0	5356	524.499919408193	1
0	5357	524.499919408193	2
0	5370	526.426410350387	1
0	5402	528.426410350387	0
0	5414	528.873408334544	1
0	5415	528.873408334544	2
0	5432	530.426410350387	1
0	5452	532.426410350387	0
0	5464	533.09415915383	1
0	5465	533.09415915383	2
0	5472	534.426410350387	1
0	5499	536.426410350387	0
0	5505	536.64786514956	1
0	5506	536.64786514956	2
0	5531	538.426410350387	1
0	5551	540.426410350387	0
0	5557	540.881340067808	1
0	5558	540.881340067808	2
0	5576	542.426410350387	1
0	5593	544.426410350387	0
0	5599	544.450113538036	1
0	5600	544.450113538036	2
0	5612	546.426410350387	1
0	5626	548.426410350387	0
0	5632	548.726313003604	1
0	5633	548.726313003604	2
0	5645	550.426410350387	1
0	5664	552.426410350387	0
0	5670	552.426466749887	1
0	5671	552.426466749887	2
0	5696	554.426410350387	1
0	5721	556.426410350387	0
0	5730	557.226514761028	1
0	5731	557.226514761028	2
0	5746	558.426410350387	1
0	5766	560.426410350387	0
0	5772	561.096813029417	1
0	5773	561.096813029417	2
0	5788	562.426410350387	1
0	5802	564.426410350387	0
0	5808	564.559958479419	1
0	5809	564.559958479419	2
0	5821	566.426410350387	1
0	5848	568.426410350387	0
0	5854	568.572827456429	1
0	5855	568.572827456429	2
0	5870	570.426410350387	1
0	5887	572.426410350387	0
0	5893	573.121219188414	1
0	5894	573.121219188414	2
0	5914	574.426410350387	1
0	5936	576.426410350387	0
0	5942	576.631540983551	1
0	5943	576.631540983551	2
0	5963	578.426410350387	1
0	5988	580.426410350387	0
0	5994	581.034887217613	1
0	5995	581.034887217613	2
0	6013	582.426410350387	1
0	6035	584.426410350387	0
0	6041	584.532359940767	1
0	6042	584.532359940767	2
0	6060	586.426410350387	1
0	6082	588.426410350387	0
0	6101	590.684407502565	1
0	6116	592.684407502565	0
0	6122	593.672764648272	1
0	6123	593.672764648272	2
0	6137	594.684407502565	1
0	6154	596.684407502565	0
0	6160	597.107157301285	1
0	6161	597.107157301285	2
0	6186	598.684407502565	1
0	6208	600.684407502565	0
0	6220	602.187539157282	1
0	6221	602.187539157282	2
0	6228	602.684407502565	1
0	6250	604.684407502565	0
0	6256	605.636184720725	1
0	6257	605.636184720725	2
0	6267	606.684407502565	1
0	6291	608.684407502565	0
0	6303	609.986283860367	1
0	6304	609.986283860367	2
0	6308	610.684407502565	1
0	6330	612.684407502565	0
0	6336	613.153469991358	1
0	6337	613.153469991358	2
0	6349	614.684407502565	1
0	6363	616.684407502565	0
0	6369	616.985849513377	1
0	6370	616.985849513377	2
0	6377	618.684407502565	1
0	6401	620.684407502565	0
0	6407	620.762515620784	1
0	6408	620.762515620784	2
0	6433	622.684407502565	1
0	6447	623.850209674857	2
0	6448	623.850209674857	3
0	6463	624.684407502565	2
0	6488	626.684407502565	1
0	6502	628.078535650279	2
0	6503	628.078535650279	3
0	6513	628.684407502565	2
0	6538	630.684407502565	1
0	6558	632.684407502565	0
0	6564	633.920362807332	1
0	6565	633.920362807332	2
0	6575	634.684407502565	1
0	6589	636.684407502565	0
0	6595	637.985571001217	1
0	6596	637.985571001217	2
0	6605	638.684407502565	1
0	6619	640.684407502565	0
0	6625	640.821815510153	1
0	6626	640.821815510153	2
0	6638	642.684407502565	1
0	6657	644.684407502565	0
0	6663	644.994305669815	1
0	6664	644.994305669815	2
0	6684	646.684407502565	1
0	6706	648.684407502565	0
0	6718	650.374668003987	1
0	6719	650.374668003987	2
0	6723	650.684407502565	1
0	6740	652.684407502565	0
0	6746	652.802001287786	1
0	6747	652.802001287786	2
0	6759	654.684407502565	1
0	6778	656.684407502565	0
0	6784	657.456163913038	1
0	6785	657.456163913038	2
0	6800	658.684407502565	1
0	6817	660.684407502565	0
0	6823	660.871189037845	1
0	6824	660.871189037845	2
0	6836	662.684407502565	1
0	6850	664.684407502565	0
0	6856	666.044973216172	1
0	6857	666.044973216172	2
0	6864	666.684407502565	1
0	6880	668.684407502565	0
0	6886	669.590091436796	1
0	6887	669.590091436796	2
0	6899	670.684407502565	1
0	6921	672.684407502565	0
0	6927	673.287598906675	1
0	6928	673.287598906675	2
0	6948	674.684407502565	1
0	6968	676.684407502565	0
0	6974	676.885885292777	1
0	6975	676.885885292777	2
0	6990	678.684407502565	1
0	7011	680.684407502565	0
0	7023	682.021281928996	1
0	7024	682.021281928996	2
0	7031	682.684407502565	1
0	7051	684.684407502565	0
0	7057	685.488808807687	1
0	7058	685.488808807687	2
0	7067	686.684407502565	1
0	7091	688.684407502565	0
0	7097	689.399383703773	1
0	7098	689.399383703773	2
0	7118	690.684407502565	1
0	7129	691.792171366554	2
0	7130	691.792171366554	3
0	7148	692.684407502565	2
0	7173	694.684407502565	1
0	7193	696.684407502565	0
0	7199	696.989680550285	1
0	7200	696.989680550285	2
0	7218	698.684407502565	1
0	7240	700.684407502565	0
0	7246	701.091287194943	1
0	7247	701.091287194943	2
0	7257	702.684407502565	1
0	7281	704.684407502565	0
0	7287	705.468098185978	1
0	7288	705.468098185978	2
0	7298	706.684407502565	1
0	7320	708.684407502565	0
0	7326	710.189435830859	1
0	7327	710.189435830859	2
0	7334	710.684407502565	1
0	7348	712.684407502565	0
0	7354	713.055578086417	1
0	7355	713.055578086417	2
0	7364	714.684407502565	1
0	7378	716.684407502565	0
0	7384	716.874941523992	1
0	7385	716.874941523992	2
0	7402	718.684407502565	1
0	7419	720.684407502565	0
0	7425	720.886069762119	1
0	7426	720.886069762119	2
0	7436	722.684407502565	1
0	7465	724.660322502945	2
0	7466	724.660322502945	3
0	7467	724.684407502565	2
0	7497	726.684407502565	1
0	7514	727.886163986934	2
0	7515	727.886163986934	3
0	7527	728.684407502565	2
0	7547	730.684407502565	1
0	7575	732.658794115829	2
0	7576	732.658794115829	3
0	7577	732.684407502565	2
0	7597	734.684407502565	1
0	7622	736.684407502565	0
0	7631	737.059419428162	1
0	7632	737.059419428162	2
0	7644	738.684407502565	1
0	7666	740.684407502565	0
0	7672	740.724636367981	1
0	7673	740.724636367981	2
0	7698	742.684407502565	1
0	7723	744.684407502565	0
0	7738	746.410369250633	1
0	7739	746.410369250633	2
0	7743	746.684407502565	1
0	7768	748.684407502565	0
0	7787	750.857008200143	1
0	7804	752.857008200143	0
0	7810	753.86033109173	1
0	7811	753.86033109173	2
0	7818	754.857008200143	1
0	7837	756.857008200143	0
0	7843	757.194448942169	1
0	7844	757.194448942169	2
0	7861	758.857008200143	1
0	7878	760.857008200143	0
0	7887	761.995192327105	1
0	7888	761.995192327105	2
0	7900	762.857008200143	1
0	7917	764.857008200143	0
0	7923	765.44644316553	1
0	7924	765.44644316553	2
0	7936	766.857008200143	1
0	7960	768.857008200143	0
0	7972	770.643598957558	1
0	7973	770.643598957558	2
0	7977	770.857008200143	1
0	7994	772.857008200143	0
0	8000	772.911950478683	1
0	8001	772.911950478683	2
0	8013	774.857008200143	1
0	8032	776.857008200143	0
0	8038	777.69340186649	1
0	8039	777.69340186649	2
0	8051	778.857008200143	1
0	8065	780.857008200143	0
0	8071	780.951196498313	1
0	8072	780.951196498313	2
0	8089	782.857008200143	1
0	8100	783.785609650007	2
0	8101	783.785609650007	3
0	8119	784.857008200143	2
0	8144	786.857008200143	1
0	8169	788.857008200143	0
0	8191	791.086016081427	1
0	8208	793.086016081427	0
0	8214	793.509142827876	1
0	8215	793.509142827876	2
0	8227	795.086016081427	1
0	8244	797.086016081427	0
0	8250	797.127047022191	1
0	8251	797.127047022191	2
0	8266	799.086016081427	1
0	8290	801.086016081427	0
0	8296	802.337484628433	1
0	8297	802.337484628433	2
0	8307	803.086016081427	1
0	8324	805.086016081427	0
0	8330	805.868170751633	1
0	8331	805.868170751633	2
0	8343	807.086016081427	1
0	8359	809.086016081427	0
0	8368	810.054397686762	1
0	8369	810.054397686762	2
0	8376	811.086016081427	1
0	8398	813.086016081427	0
0	8404	813.703949144369	1
0	8405	813.703949144369	2
0	8417	815.086016081427	1
0	8441	817.086016081427	0
0	8447	817.862826458016	1
0	8448	817.862826458016	2
0	8461	819.086016081427	1
0	8491	821.086016081427	0
0	8497	821.97317946658	1
0	8498	821.97317946658	2
0	8508	823.086016081427	1
0	8525	825.086016081427	0
0	8531	826.112601011514	1
0	8532	826.112601011514	2
0	8541	827.086016081427	1
0	8555	829.086016081427	0
0	8561	829.462365027744	1
0	8562	829.462365027744	2
0	8579	831.086016081427	1
0	8593	833.086016081427	0
0	8599	834.036377702975	1
0	8600	834.036377702975	2
0	8615	835.086016081427	1
0	8629	837.086016081427	0
0	8635	837.100484281845	1
0	8636	837.100484281845	2
0	8648	839.086016081427	1
0	8675	841.086016081427	0
0	8684	841.721259178837	1
0	8685	841.721259178837	2
0	8697	843.086016081427	1
0	8727	845.086016081427	0
0	8742	846.075073519007	1
0	8743	846.075073519007	2
0	8747	847.086016081427	1
0	8769	849.086016081427	0
0	8775	849.142959502685	1
0	8776	849.142959502685	2
0	8796	851.086016081427	1
0	8813	853.086016081427	0
0	8825	854.913796727861	1
0	8826	854.913796727861	2
0	8830	855.086016081427	1
0	8844	857.086016081427	0
0	8850	858.687339840837	1
0	8851	858.687339840837	2
0	8855	859.086016081427	1
0	8871	861.086016081427	0
0	8877	861.845817706341	1
0	8878	861.845817706341	2
0	8890	863.086016081427	1
0	8912	865.086016081427	0
0	8918	865.774884959792	1
0	8919	865.774884959792	2
0	8929	867.086016081427	1
0	8948	869.086016081427	0
0	8954	869.493569499647	1
0	8955	869.493569499647	2
0	8972	871.086016081427	1
0	8997	873.086016081427	0
0	9003	873.617875100327	1
0	9004	873.617875100327	2
0	9022	875.086016081427	1
0	9044	877.086016081427	0
0	9050	877.49515500634	1
0	9051	877.49515500634	2
0	9066	879.086016081427	1
0	9088	881.086016081427	0
0	9094	882.053513201282	1
0	9095	882.053513201282	2
0	9110	883.086016081427	1
0	9129	885.086016081427	0
0	9135	885.091132137006	1
0	9136	885.091132137006	2
0	9151	887.086016081427	1
0	9178	889.086016081427	0
0	9184	889.906315772651	1
0	9185	889.906315772651	2
0	9203	891.086016081427	1
0	9223	893.086016081427	0
0	9229	893.393557219973	1
0	9230	893.393557219973	2
0	9242	895.086016081427	1
0	9264	897.086016081427	0
0	9270	897.303499629145	1
0	9271	897.303499629145	2
0	9286	899.086016081427	1
0	9308	901.086016081427	0
0	9314	901.883836504575	1
0	9315	901.883836504575	2
0	9330	903.086016081427	1
0	9349	905.086016081427	0
0	9355	906.632634803549	1
0	9356	906.632634803549	2
0	9366	907.086016081427	1
0	9383	909.086016081427	0
0	9389	909.234520467537	1
0	9390	909.234520467537	2
0	9404	911.086016081427	1
0	9431	913.086016081427	0
0	9437	913.139751570849	1
0	9438	913.139751570849	2
0	9466	915.086016081427	1
0	9491	917.086016081427	0
0	9497	917.774550102713	1
0	9498	917.774550102713	2
0	9516	919.086016081427	1
0	9536	921.086016081427	0
0	9542	921.681795915764	1
0	9543	921.681795915764	2
0	9556	923.086016081427	1
0	9575	925.086016081427	0
0	9581	925.236661938081	1
0	9582	925.236661938081	2
0	9594	927.086016081427	1
0	9608	929.086016081427	0
0	9614	929.22959067861	1
0	9615	929.22959067861	2
0	9632	931.086016081427	1
0	9657	933.086016081427	0
0	9669	934.389818626883	1
0	9670	934.389818626883	2
0	9682	935.086016081427	1
0	9696	937.086016081427	0
0	9702	937.474665851507	1
0	9703	937.474665851507	2
0	9720	939.086016081427	1
0	9750	941.086016081427	0
0	9762	942.494806182368	1
0	9763	942.494806182368	2
0	9770	943.086016081427	1
0	9782	945.086016081427	0
0	9791	945.688660585873	1
0	9792	945.688660585873	2
0	9798	947.086016081427	1
0	9814	949.086016081427	0
0	9820	949.810888701056	1
0	9821	949.810888701056	2
0	9831	951.086016081427	1
0	9855	953.086016081427	0
0	9864	953.863044202624	1
0	9865	953.863044202624	2
0	9877	955.086016081427	1
0	9894	957.086016081427	0
0	9903	957.653914126607	1
0	9904	957.653914126607	2
0	9918	959.086016081427	1
0	9940	961.032514539596	2
0	9941	961.032514539596	3
0	9942	961.086016081427	2
0	9967	963.086016081427	1
0	9992	965.086016081427	0
0	10010	966.732902982188	1
0	10011	966.732902982188	2
0	10012	967.086016081427	1
0	10037	969.086016081427	0
0	10046	969.984091950455	1
0	10047	969.984091950455	2
0	10056	971.086016081427	1
0	10080	973.086016081427	0
0	10086	973.475178401681	1
0	10087	973.475178401681	2
0	10105	975.086016081427	1
0	10135	977.086016081427	0
0	10147	978.264097056315	1
0	10148	978.264097056315	2
0	10155	979.086016081427	1
0	10185	981.086016081427	0
0	10200	982.964274191089	1
0	10201	982.964274191089	2
0	10202	983.086016081427	1
0	10224	985.086016081427	0
0	10233	985.804884324173	1
0	10234	985.804884324173	2
0	10243	987.086016081427	1
0	10257	989.086016081427	0
0	10266	989.756854815563	1
0	10267	989.756854815563	2
0	10276	991.086016081427	1
0	10295	993.086016081427	0
0	10307	994.78225829351	1
0	10308	994.78225829351	2
0	10312	995.086016081427	1
0	10334	997.086016081427	0
0	10343	997.630058654172	1
0	10344	997.630058654172	2
0	10353	999.086016081427	1
0	10367	1001.086016081427	0
0	10376	1001.882020054024	1
0	10377	1001.882020054024	2
0	10386	1003.086016081427	1
0	10400	1005.086016081427	0
0	10406	1005.29757790463	1
0	10407	1005.29757790463	2
0	10419	1007.086016081427	1
0	10438	1009.086016081427	0
0	10447	1010.010227231687	1
0	10448	1010.010227231687	2
0	10460	1011.086016081427	1
0	10482	1013.086016081427	0
0	10488	1013.192587406652	1
0	10489	1013.192587406652	2
0	10509	1015.086016081427	1
0	10531	1017.086016081427	0
0	10537	1017.137881699432	1
0	10538	1017.137881699432	2
0	10566	1019.086016081427	1
0	10577	1019.469784286719	2
0	10578	1019.469784286719	3
0	10596	1021.086016081427	2
0	10621	1023.086016081427	1
0	10641	1024.789884729276	2
0	10642	1024.789884729276	3
0	10646	1025.086016081427	2
0	10666	1027.086016081427	1
0	10686	1029.086016081427	0
0	10692	1029.102411167934	1
0	10693	1029.102411167934	2
0	10710	1031.086016081427	1
0	10724	1033.086016081427	0
0	10733	1034.145081384498	1
0	10734	1034.145081384498	2
0	10741	1035.086016081427	1
0	10763	1037.086016081427	0
0	10769	1037.213059929318	1
0	10770	1037.213059929318	2
0	10782	1039.086016081427	1
0	10801	1041.086016081427	0
0	10807	1041.143827070258	1
0	10808	1041.143827070258	2
0	10823	1043.086016081427	1
0	10845	1045.086016081427	0
0	10854	1046.058515586168	1
0	10855	1046.058515586168	2
0	10862	1047.086016081427	1
0	10884	1049.086016081427	0
0	10890	1049.620315327263	1
0	10891	1049.620315327263	2
0	10903	1051.086016081427	1
0	10917	1053.086016081427	0
0	10926	1054.436232969785	1
0	10927	1054.436232969785	2
0	10931	1055.086016081427	1
0	10950	1057.086016081427	0
0	10959	1058.452878953203	1
0	10960	1058.452878953203	2
0	10964	1059.086016081427	1
0	10983	1061.086016081427	0
0	10989	1061.191966112924	1
0	10990	1061.191966112924	2
0	11007	1063.086016081427	1
0	11024	1065.086016081427	0
0	11033	1066.401883514196	1
0	11034	1066.401883514196	2
0	11041	1067.086016081427	1
0	11065	1069.086016081427	0
0	11077	1069.723013437465	1
0	11078	1069.723013437465	2
0	11087	1071.086016081427	1
0	11109	1073.086016081427	0
0	11115	1073.56392115144	1
0	11116	1073.56392115144	2
0	11136	1075.086016081427	1
0	11161	1077.086016081427	0
0	11167	1077.309050240117	1
0	11168	1077.309050240117	2
0	11186	1079.086016081427	1
0	11203	1081.086016081427	0
0	11209	1081.356245185184	1
0	11210	1081.356245185184	2
0	11222	1083.086016081427	1
0	11241	1085.086016081427	0
0	11247	1085.370571882999	1
0	11248	1085.370571882999	2
0	11268	1087.086016081427	1
0	11285	1089.086016081427	0
0	11297	1090.954768395793	1
0	11298	1090.954768395793	2
0	11307	1091.086016081427	1
0	11329	1093.086016081427	0
0	11338	1094.366897639574	1
0	11339	1094.366897639574	2
0	11346	1095.086016081427	1
0	11363	1097.086016081427	0
0	11372	1097.629048476865	1
0	11373	1097.629048476865	2
0	11379	1099.086016081427	1
0	11395	1101.086016081427	0
0	11404	1101.472589940161	1
0	11405	1101.472589940161	2
0	11417	1103.086016081427	1
0	11444	1105.086016081427	0
0	11456	1106.38835252591	1
0	11457	1106.38835252591	2
0	11469	1107.086016081427	1
0	11489	1109.086016081427	0
0	11498	1110.037786833721	1
0	11499	1110.037786833721	2
0	11503	1111.086016081427	1
0	11522	1113.086016081427	0
0	11531	1113.816261726302	1
0	11532	1113.816261726302	2
0	11541	1115.086016081427	1
0	11565	1117.086016081427	0
0	11574	1118.372705253731	1
0	11575	1118.372705253731	2
0	11585	1119.086016081427	1