version 3
run k_MM1_lbqf-22-20221127-16:03:35-25264
attr configname k_MM1_lbqf
attr datetime 20221127-16:03:35
attr datetimef 20221127-160335
attr experiment k_MM1_lbqf
attr inifile omnetpp.ini
attr iterationvars "$time=2.0, $num=5, $0=47853, $1=24674, $2=96433"
attr iterationvarsd time=2.0/num=5/47853/24674/96433
attr iterationvarsf time=2.0,num=5,47853,24674,96433-
attr measurement "$time=2.0, $num=5, $0=47853, $1=24674, $2=96433"
attr network lbqfkMM1
attr processid 25264
attr repetition 2
attr replication #2
attr resultdir results
attr runnumber 22
attr seedset 22
itervar num 5
itervar time 2.0
config description "MM1 module k-times lbqf"
config network lbqfkMM1
config **.interArrivalTime "truncnormal(uniform(0.5s, 1.5s), uniform(0.25s, 0.75s))"
config **.serviceTime 2.0s
config **.c 5
config **.capacity 10000
config record-eventlog false
config **.scalar-recording true
config **.vector-recording true
config repeat 4
config seed-1-mt 47853
config seed-2-mt 24674
config seed-3-mt 96433
config output-vector-file k_MM1_lbqf-5-2.0-results/2.vec
config output-scalar-file k_MM1_lbqf-5-2.0-results/2.sca

vector 0 lbqfkMM1.mm1[0] queueLength:vector ETV
attr interpolationmode none
attr recordingmode vector
attr title "queue length"
vector 1 lbqfkMM1.mm1[1] queueLength:vector ETV
attr interpolationmode none
attr recordingmode vector
attr title "queue length"
vector 2 lbqfkMM1.mm1[2] queueLength:vector ETV
attr interpolationmode none
attr recordingmode vector
attr title "queue length"
vector 3 lbqfkMM1.mm1[0] util:vector ETV
attr interpolationmode none
attr recordingmode vector
attr title resources
vector 4 lbqfkMM1.mm1[1] util:vector ETV
attr interpolationmode none
attr recordingmode vector
attr title resources
vector 5 lbqfkMM1.mm1[2] util:vector ETV
attr interpolationmode none
attr recordingmode vector
attr title resources
vector 6 lbqfkMM1.mm1[3] queueLength:vector ETV
attr interpolationmode none
attr recordingmode vector
attr title "queue length"
vector 7 lbqfkMM1.mm1[3] util:vector ETV
attr interpolationmode none
attr recordingmode vector
attr title resources
vector 8 lbqfkMM1.mm1[4] queueLength:vector ETV
attr interpolationmode none
attr recordingmode vector
attr title "queue length"
vector 9 lbqfkMM1.mm1[4] util:vector ETV
attr interpolationmode none
attr recordingmode vector
attr title resources
0	5	10	1
0	16	12	0
0	25	12.907243635808	1
0	26	12.907243635808	2
0	30	14	1
0	49	16	0
0	55	16.075183480613	1
0	56	16.075183480613	2
0	68	18	1
0	87	20	0
0	93	20.190974030859	1
0	94	20.190974030859	2
0	104	22	1
0	131	24	0
0	140	25.054988935163	1
0	141	25.054988935163	2
0	148	26	1
0	160	28	0
0	166	28.203438665326	1
0	167	28.203438665326	2
0	173	30	1
0	189	32	0
0	195	32.387995436318	1
0	196	32.387995436318	2
0	208	34	1
0	227	35.05036883132	2
0	228	35.05036883132	3
0	237	36	2
0	262	38	1
0	287	40	0
0	293	40.154044606058	1
0	294	40.154044606058	2
0	322	42	1
0	337	43.095194918364	2
0	338	43.095194918364	3
0	342	44	2
0	367	46	1
0	387	48	0
0	393	48.428263810146	1
0	394	48.428263810146	2
0	414	50	1
0	441	52	0
0	456	53.485878563135	1
0	457	53.485878563135	2
0	466	54	1
0	486	56	0
0	492	56.443395543407	1
0	493	56.443395543407	2
0	510	58	1
0	527	60	0
0	533	60.44115539755	1
0	534	60.44115539755	2
0	549	62	1
0	571	64	0
0	577	64.457690668067	1
0	578	64.457690668067	2
0	593	66	1
0	610	68	0
0	616	68.038045734082	1
0	617	68.038045734082	2
0	632	70	1
0	651	72	0
0	660	73.133446529364	1
0	661	73.133446529364	2
0	670	74	1
0	684	76	0
0	690	76.296186353072	1
0	691	76.296186353072	2
0	706	78	1
0	733	80	0
0	739	80.129734832785	1
0	740	80.129734832785	2
0	755	82	1
0	780	84	0
0	792	84.725115269757	1
0	793	84.725115269757	2
0	800	86	1
0	824	88	0
0	836	89.277093554455	1
0	837	89.277093554455	2
0	841	90	1
0	858	92	0
0	864	92.781400416706	1
0	865	92.781400416706	2
0	869	94	1
0	885	96	0
0	894	96.88872909433	1
0	895	96.88872909433	2
0	909	98	1
0	923	100	0
0	929	100.179236235619	1
0	930	100.179236235619	2
0	950	102	1
0	975	104	0
0	987	104.986315724797	1
0	988	104.986315724797	2
0	995	106	1
0	1017	108	0
0	1023	108.508973811029	1
0	1024	108.508973811029	2
0	1046	110	1
0	1068	112	0
0	1083	113.537997950921	1
0	1084	113.537997950921	2
0	1088	114	1
0	1108	116	0
0	1117	116.912409841605	1
0	1118	116.912409841605	2
0	1127	118	1
0	1143	120	0
0	1152	120.693007868205	1
0	1153	120.693007868205	2
0	1170	122	1
0	1189	123.032119933933	2
0	1190	123.032119933933	3
0	1197	124	2
0	1222	126	1
0	1242	128	0
0	1248	128.316998225114	1
0	1249	128.316998225114	2
0	1259	130	1
0	1281	132	0
0	1287	132.048031820818	1
0	1288	132.048031820818	2
0	1300	134	1
0	1319	136	0
0	1325	136.011393679342	1
0	1326	136.011393679342	2
0	1346	138	1
0	1371	139.741040543429	2
0	1372	139.741040543429	3
0	1373	140	2
0	1393	142	1
0	1423	144	0
0	1432	145.00122302412	1
0	1433	145.00122302412	2
0	1443	146	1
0	1468	148	0
0	1474	148.074930078174	1
0	1475	148.074930078174	2
0	1492	150	1
0	1509	152	0
0	1515	152.368791184241	1
0	1516	152.368791184241	2
0	1531	154	1
0	1548	156	0
0	1554	156.975615563786	1
0	1555	156.975615563786	2
0	1567	158	1
0	1586	160	0
0	1592	160.003967841514	1
0	1593	160.003967841514	2
0	1613	162	1
0	1629	163.031066638399	2
0	1630	163.031066638399	3
0	1648	164	2
0	1673	166	1
0	1703	168	0
0	1709	168.796435473477	1
0	1710	168.796435473477	2
0	1728	170	1
0	1748	172	0
0	1754	172.314271890931	1
0	1755	172.314271890931	2
0	1773	174	1
0	1790	176	0
0	1796	176.574710022967	1
0	1797	176.574710022967	2
0	1809	178	1
0	1828	180	0
0	1834	180.416855647518	1
0	1835	180.416855647518	2
0	1852	182	1
0	1863	182.940743524894	2
0	1864	182.940743524894	3
0	1882	184	2
0	1907	186	1
0	1932	188	0
0	1938	188.731283416941	1
0	1939	188.731283416941	2
0	1957	190	1
0	1981	192	0
0	1987	192.650207190955	1
0	1988	192.650207190955	2
0	2006	194	1
0	2026	196	0
0	2032	196.797746314222	1
0	2033	196.797746314222	2
0	2043	198	1
0	2062	200	0
0	2068	200.353053532099	1
0	2069	200.353053532099	2
0	2076	202	1
0	2095	204	0
0	2101	204.370568741147	1
0	2102	204.370568741147	2
0	2114	206	1
0	2131	208	0
0	2137	208.612897596381	1
0	2138	208.612897596381	2
0	2150	210	1
0	2169	212	0
0	2184	213.890278776724	1
0	2185	213.890278776724	2
0	2186	214	1
0	2205	216	0
0	2211	216.764728669144	1
0	2212	216.764728669144	2
0	2224	218	1
0	2246	220	0
0	2252	220.640202368987	1
0	2253	220.640202368987	2
0	2268	222	1
0	2290	224	0
0	2296	225.268643330405	1
0	2297	225.268643330405	2
0	2317	226	1
0	2336	228	0
0	2351	229.711784793365	1
0	2352	229.711784793365	2
0	2356	230	1
0	2376	232	0
0	2382	232.728895826409	1
0	2383	232.728895826409	2
0	2387	234	1
0	2403	236	0
0	2409	237.165752844429	1
0	2410	237.165752844429	2
0	2422	238	1
0	2441	240	0
0	2447	240.158894228034	1
0	2448	240.158894228034	2
0	2458	242	1
0	2485	244	0
0	2491	244.441544077838	1
0	2492	244.441544077838	2
0	2502	246	1
0	2524	248	0
0	2530	248.330882489705	1
0	2531	248.330882489705	2
0	2543	250	1
0	2565	252	0
0	2571	252.77181404308	1
0	2572	252.77181404308	2
0	2587	254	1
0	2611	256	0
0	2617	256.818467075549	1
0	2618	256.818467075549	2
0	2631	258	1
0	2656	260	0
0	2662	261.597115893975	1
0	2663	261.597115893975	2
0	2670	262	1
0	2699	264	0
0	2708	265.418606943453	1
0	2709	265.418606943453	2
0	2719	266	1
0	2739	268	0
0	2745	268.244801202922	1
0	2746	268.244801202922	2
0	2755	270	1
0	2779	272	0
0	2785	272.631654857126	1
0	2786	272.631654857126	2
0	2799	274	1
0	2826	276	0
0	2835	277.021681191634	1
0	2836	277.021681191634	2
0	2843	278	1
0	2865	280	0
0	2871	280.131003959758	1
0	2872	280.131003959758	2
0	2884	282	1
0	2898	284	0
0	2904	284.621223009846	1
0	2905	284.621223009846	2
0	2912	286	1
0	2931	288	0
0	2937	288.418733444493	1
0	2938	288.418733444493	2
0	2945	290	1
0	2964	292	0
0	2970	292.939779819113	1
0	2971	292.939779819113	2
0	2983	294	1
0	3007	296	0
0	3013	296.791387754668	1
0	3014	296.791387754668	2
0	3027	298	1
0	3057	300	0
0	3063	300.536676650018	1
0	3064	300.536676650018	2
0	3084	302	1
0	3109	304	0
0	3115	304.195838600338	1
0	3116	304.195838600338	2
0	3139	306	1
0	3164	308	0
0	3170	308.773960389013	1
0	3171	308.773960389013	2
0	3189	310	1
0	3211	312	0
0	3217	313.147437883281	1
0	3218	313.147437883281	2
0	3233	314	1
0	3258	316	0
0	3264	316.122819795785	1
0	3265	316.122819795785	2
0	3280	318	1
0	3307	320	0
0	3316	321.499107054715	1
0	3317	321.499107054715	2
0	3329	322	1
0	3364	324	0
0	3370	324.721453543857	1
0	3371	324.721453543857	2
0	3389	326	1
0	3409	328	0
0	3415	328.443578588545	1
0	3416	328.443578588545	2
0	3429	330	1
0	3448	332	0
0	3454	332.587016914781	1
0	3455	332.587016914781	2
0	3467	334	1
0	3486	336	0
0	3492	336.262535163982	1
0	3493	336.262535163982	2
0	3508	338	1
0	3528	340	0
0	3534	340.031328366513	1
0	3535	340.031328366513	2
0	3547	342	1
0	3561	344	0
0	3567	344.322501466787	1
0	3568	344.322501466787	2
0	3585	346	1
0	3612	348	0
0	3618	348.458319535263	1
0	3619	348.458319535263	2
0	3637	350	1
0	3657	352	0
0	3663	352.229326209814	1
0	3664	352.229326209814	2
0	3679	354	1
0	3703	356	0
0	3709	357.009870282921	1
0	3710	357.009870282921	2
0	3725	358	1
0	3737	360	0
0	3743	360.028626085707	1
0	3744	360.028626085707	2
0	3756	362	1
0	3770	364	0
0	3776	364.595770345857	1
0	3777	364.595770345857	2
0	3789	366	1
0	3813	368	0
0	3822	369.005420982368	1
0	3823	369.005420982368	2
0	3835	370	1
0	3852	372	0
0	3858	372.677034914564	1
0	3859	372.677034914564	2
0	3869	374	1
0	3898	376	0
0	3904	376.27000594729	1
0	3905	376.27000594729	2
0	3928	378	1
0	3953	380	0
0	3959	380.243812166056	1
0	3960	380.243812166056	2
0	3983	382	1
0	4003	384	0
0	4009	384.419386956502	1
0	4010	384.419386956502	2
0	4020	386	1
0	4042	388	0
0	4048	389.214444060224	1
0	4049	389.214444060224	2
0	4061	390	1
0	4080	392	0
0	4086	392.600517235708	1
0	4087	392.600517235708	2
0	4097	394	1
0	4119	396	0
0	4125	396.672964886683	1
0	4126	396.672964886683	2
0	4133	398	1
0	4162	400	0
0	4184	402.070425397105	1
0	4202	404.070425397105	0
0	4208	404.484286021484	1
0	4209	404.484286021484	2
0	4218	406.070425397105	1
0	4237	408.070425397105	0
0	4243	408.58467709241	1
0	4244	408.58467709241	2
0	4256	410.070425397105	1
0	4278	412.070425397105	0
0	4284	412.915488927925	1
0	4285	412.915488927925	2
0	4300	414.070425397105	1
0	4314	416.070425397105	0
0	4320	416.918282150751	1
0	4321	416.918282150751	2
0	4338	418.070425397105	1
0	4360	420.070425397105	0
0	4366	420.094954265965	1
0	4367	420.094954265965	2
0	4390	422.070425397105	1
0	4410	424.070425397105	0
0	4429	426.105398410212	1
0	4436	428.105398410212	0
0	4442	428.49018410367	1
0	4443	428.49018410367	2
0	4452	430.105398410212	1
0	4458	432.105398410212	0
0	4464	432.322635619059	1
0	4465	432.322635619059	2
0	4484	434.105398410212	1
0	4501	436.105398410212	0
0	4520	438.444717878457	1
0	4529	440.444717878457	0
0	4535	440.734627733325	1
0	4536	440.734627733325	2
0	4548	442.444717878457	1
0	4567	444.444717878457	0
0	4573	445.136918519655	1
0	4574	445.136918519655	2
0	4581	446.444717878457	1
0	4600	448.444717878457	0
0	4606	448.583606539796	1
0	4607	448.583606539796	2
0	4622	450.444717878457	1
0	4646	452.444717878457	0
0	4661	453.961715970108	1
0	4662	453.961715970108	2
0	4666	454.444717878457	1
0	4701	456.444717878457	0
0	4707	457.097267530352	1
0	4708	457.097267530352	2
0	4731	458.444717878457	1
0	4746	460.444717878457	0
0	4752	460.483769253119	1
0	4753	460.483769253119	2
0	4770	462.444717878457	1
0	4789	464.444717878457	0
0	4798	464.704997390875	1
0	4799	464.704997390875	2
0	4809	466.444717878457	1
0	4834	468.444717878457	0
0	4840	469.249005516979	1
0	4841	469.249005516979	2
0	4848	470.444717878457	1
0	4867	472.444717878457	0
0	4873	472.678221396671	1
0	4874	472.678221396671	2
0	4881	474.444717878457	1
0	4900	476.444717878457	0
0	4906	476.662594764865	1
0	4907	476.662594764865	2
0	4924	478.444717878457	1
0	4941	480.444717878457	0
0	4947	480.596213289432	1
0	4948	480.596213289432	2
0	4968	482.444717878457	1
0	4985	484.444717878457	0
0	4991	484.719111979696	1
0	4992	484.719111979696	2
0	5007	486.444717878457	1
0	5021	488.444717878457	0
0	5027	489.510220760984	1
0	5028	489.510220760984	2
0	5040	490.444717878457	1
0	5064	492.444717878457	0
0	5070	492.9318260907	1
0	5071	492.9318260907	2
0	5094	494.444717878457	1
0	5114	496.444717878457	0
0	5120	496.771892682511	1
0	5121	496.771892682511	2
0	5131	498.444717878457	1
0	5153	500.444717878457	0
0	5159	500.503105174049	1
0	5160	500.503105174049	2
0	5177	502.444717878457	1
0	5204	504.444717878457	0
0	5210	505.086943369944	1
0	5211	505.086943369944	2
0	5224	506.444717878457	1
0	5254	508.444717878457	0
0	5260	508.809317998289	1
0	5261	508.809317998289	2
0	5276	510.444717878457	1
0	5296	512.444717878457	0
0	5302	513.090002505224	1
0	5303	513.090002505224	2
0	5323	514.444717878457	1
0	5342	516.444717878457	0
0	5348	517.198958101866	1
0	5349	517.198958101866	2
0	5359	518.444717878457	1
0	5381	520.444717878457	0
0	5393	522.172185837063	1
0	5394	522.172185837063	2
0	5395	522.444717878457	1
0	5414	524.444717878457	0
0	5420	524.568002249957	1
0	5421	524.568002249957	2
0	5446	526.444717878457	1
0	5471	528.168905209849	2
0	5472	528.168905209849	3
0	5473	528.444717878457	2
0	5493	530.444717878457	1
0	5518	532.444717878457	0
0	5524	533.079220326453	1
0	5525	533.079220326453	2
0	5548	534.444717878457	1
0	5573	536.444717878457	0
0	5579	537.36332369745	1
0	5580	537.36332369745	2
0	5595	538.444717878457	1
0	5612	540.444717878457	0
0	5618	540.805335007578	1
0	5619	540.805335007578	2
0	5634	542.444717878457	1
0	5661	544.444717878457	0
0	5667	545.603445121571	1
0	5668	545.603445121571	2
0	5683	546.444717878457	1
0	5700	548.444717878457	0
0	5706	549.195718353163	1
0	5707	549.195718353163	2
0	5724	550.444717878457	1
0	5741	552.444717878457	0
0	5747	552.936314941385	1
0	5748	552.936314941385	2
0	5763	554.444717878457	1
0	5785	556.444717878457	0
0	5791	556.477574308652	1
0	5792	556.477574308652	2
0	5807	558.444717878457	1
0	5824	560.444717878457	0
0	5830	561.447469549389	1
0	5831	561.447469549389	2
0	5846	562.444717878457	1
0	5862	564.444717878457	0
0	5871	565.418574332217	1
0	5872	565.418574332217	2
0	5889	566.444717878457	1
0	5911	568.444717878457	0
0	5917	568.487518276393	1
0	5918	568.487518276393	2
0	5946	570.444717878457	1
0	5969	571.932177551642	2
0	5970	571.932177551642	3
0	5971	572.444717878457	2
0	6001	574.444717878457	1
0	6024	576.380325474211	2
0	6025	576.380325474211	3
0	6026	576.444717878457	2
0	6051	578.444717878457	1
0	6076	580.444717878457	0
0	6091	581.840256715692	1
0	6092	581.840256715692	2
0	6096	582.444717878457	1
0	6121	584.444717878457	0
0	6127	584.79610172829	1
0	6128	584.79610172829	2
0	6145	586.444717878457	1
0	6167	588.444717878457	0
0	6182	590.264419806962	1
0	6183	590.264419806962	2
0	6189	590.444717878457	1
0	6206	592.444717878457	0
0	6212	593.075509943161	1
0	6213	593.075509943161	2
0	6233	594.444717878457	1
0	6252	596.444717878457	0
0	6261	597.4532227887	1
0	6262	597.4532227887	2
0	6272	598.444717878457	1
0	6297	600.444717878457	0
0	6303	600.692274707073	1
0	6304	600.692274707073	2
0	6316	602.444717878457	1
0	6330	604.444717878457	0
0	6336	604.509645230508	1
0	6337	604.509645230508	2
0	6349	606.444717878457	1
0	6376	608.444717878457	0
0	6382	609.022186715855	1
0	6383	609.022186715855	2
0	6398	610.444717878457	1
0	6428	612.403148080091	2
0	6429	612.403148080091	3
0	6430	612.444717878457	2
0	6455	614.444717878457	1
0	6480	616.444717878457	0
0	6486	617.192587266679	1
0	6487	617.192587266679	2
0	6505	618.444717878457	1
0	6525	620.444717878457	0
0	6531	621.044771085198	1
0	6532	621.044771085198	2
0	6542	622.444717878457	1
0	6561	624.444717878457	0
0	6567	625.558939215014	1
0	6568	625.558939215014	2
0	6580	626.444717878457	1
0	6599	628.444717878457	0
0	6605	629.731180132409	1
0	6606	629.731180132409	2
0	6616	630.444717878457	1
0	6633	632.444717878457	0
0	6639	632.472671666202	1
0	6640	632.472671666202	2
0	6649	634.444717878457	1
0	6668	636.444717878457	0
0	6677	637.243581060718	1
0	6678	637.243581060718	2
0	6687	638.444717878457	1
0	6709	640.444717878457	0
0	6715	640.807216675926	1
0	6716	640.807216675926	2
0	6736	642.444717878457	1
0	6753	644.444717878457	0
0	6765	645.964156209795	1
0	6766	645.964156209795	2
0	6770	646.444717878457	1
0	6789	648.444717878457	0
0	6795	648.688246616212	1
0	6796	648.688246616212	2
0	6808	650.444717878457	1
0	6822	652.444717878457	0
0	6828	652.733495366117	1
0	6829	652.733495366117	2
0	6841	654.444717878457	1
0	6863	656.444717878457	0
0	6869	656.738116649739	1
0	6870	656.738116649739	2
0	6885	658.444717878457	1
0	6904	660.444717878457	0
0	6910	660.886279945453	1
0	6911	660.886279945453	2
0	6926	662.444717878457	1
0	6948	664.444717878457	0
0	6954	664.547588360761	1
0	6955	664.547588360761	2
0	6975	666.444717878457	1
0	6992	668.444717878457	0
0	6998	668.585758450079	1
0	6999	668.585758450079	2
0	7014	670.444717878457	1
0	7036	672.444717878457	0
0	7048	673.450393298031	1
0	7049	673.450393298031	2
0	7053	674.444717878457	1
0	7070	676.444717878457	0
0	7076	676.63182157711	1
0	7077	676.63182157711	2
0	7089	678.444717878457	1
0	7113	680.444717878457	0
0	7128	682.184418413721	1
0	7129	682.184418413721	2
0	7130	682.444717878457	1
0	7152	684.444717878457	0
0	7158	684.977151380131	1
0	7159	684.977151380131	2
0	7171	686.444717878457	1
0	7193	688.444717878457	0
0	7199	688.677050197362	1
0	7200	688.677050197362	2
0	7223	690.444717878457	1
0	7240	692.444717878457	0
0	7246	692.668752839158	1
0	7247	692.668752839158	2
0	7267	694.444717878457	1
0	7284	696.444717878457	0
0	7290	696.807869887478	1
0	7291	696.807869887478	2
0	7311	698.444717878457	1
0	7328	700.444717878457	0
0	7334	700.534659264305	1
0	7335	700.534659264305	2
0	7345	702.444717878457	1
0	7369	704.444717878457	0
0	7375	704.820008488089	1
0	7376	704.820008488089	2
0	7391	706.444717878457	1
0	7408	708.444717878457	0
0	7414	709.216053413718	1
0	7415	709.216053413718	2
0	7422	710.444717878457	1
0	7451	712.444717878457	0
0	7457	713.702028406475	1
0	7458	713.702028406475	2
0	7476	714.444717878457	1
0	7506	716.444717878457	0
0	7512	716.712234920737	1
0	7513	716.712234920737	2
0	7531	718.444717878457	1
0	7556	720.444717878457	0
0	7562	720.832309169878	1
0	7563	720.832309169878	2
0	7578	722.444717878457	1
0	7598	724.444717878457	0
0	7604	725.319788590759	1
0	7605	725.319788590759	2
0	7612	726.444717878457	1
0	7628	728.444717878457	0
0	7634	729.02373866045	1
0	7635	729.02373866045	2
0	7647	730.444717878457	1
0	7661	732.444717878457	0
0	7667	732.714677063218	1
0	7668	732.714677063218	2
0	7680	734.444717878457	1
0	7702	736.444717878457	0
0	7708	737.327641056985	1
0	7709	737.327641056985	2
0	7729	738.444717878457	1
0	7751	740.444717878457	0
0	7757	740.991417193064	1
0	7758	740.991417193064	2
0	7773	742.444717878457	1
0	7795	744.444717878457	0
0	7801	745.25562687142	1
0	7802	745.25562687142	2
0	7812	746.444717878457	1
0	7834	748.444717878457	0
0	7840	749.106544363339	1
0	7841	749.106544363339	2
0	7856	750.444717878457	1
0	7875	752.444717878457	0
0	7881	752.672167035473	1
0	7882	752.672167035473	2
0	7897	754.444717878457	1
0	7922	756.444717878457	0
0	7928	757.22613140252	1
0	7929	757.22613140252	2
0	7939	758.444717878457	1
0	7958	760.444717878457	0
0	7964	760.862218644368	1
0	7965	760.862218644368	2
0	7977	762.444717878457	1
0	7999	764.444717878457	0
0	8005	764.551994720403	1
0	8006	764.551994720403	2
0	8026	766.444717878457	1
0	8048	768.444717878457	0
0	8054	768.938194392747	1
0	8055	768.938194392747	2
0	8065	770.444717878457	1
0	8092	772.444717878457	0
0	8098	772.718042150384	1
0	8099	772.718042150384	2
0	8119	774.444717878457	1
0	8139	776.444717878457	0
0	8145	776.803671422093	1
0	8146	776.803671422093	2
0	8169	778.444717878457	1
0	8186	780.444717878457	0
0	8192	781.071973039924	1
0	8193	781.071973039924	2
0	8213	782.444717878457	1
0	8235	784.444717878457	0
0	8241	784.498068411542	1
0	8242	784.498068411542	2
0	8257	786.444717878457	1
0	8279	788.444717878457	0
0	8285	788.746080899579	1
0	8286	788.746080899579	2
0	8304	790.444717878457	1
0	8329	792.444717878457	0
0	8335	792.748066664941	1
0	8336	792.748066664941	2
0	8351	794.444717878457	1
0	8373	796.444717878457	0
0	8379	797.696613147406	1
0	8380	797.696613147406	2
0	8390	798.444717878457	1
0	8409	800.444717878457	0
0	8415	800.776799687484	1
0	8416	800.776799687484	2
0	8428	802.444717878457	1
0	8445	804.444717878457	0
0	8451	804.453727237172	1
0	8452	804.453727237172	2
0	8464	806.444717878457	1
0	8475	808.444717878457	0
0	8481	808.53346466731	1
0	8482	808.53346466731	2
0	8499	810.444717878457	1
0	8511	812.444717878457	0
0	8517	813.12932520667	1
0	8518	813.12932520667	2
0	8530	814.444717878457	1
0	8559	816.444717878457	0
0	8565	816.704064900696	1
0	8566	816.704064900696	2
0	8584	818.444717878457	1
0	8604	820.444717878457	0
0	8610	820.794979013004	1
0	8611	820.794979013004	2
0	8626	822.444717878457	1
0	8640	824.444717878457	0
0	8646	825.152771869241	1
0	8647	825.152771869241	2
0	8664	826.444717878457	1
0	8678	828.444717878457	0
0	8684	829.178188439474	1
0	8685	829.178188439474	2
0	8705	830.444717878457	1
0	8727	832.444717878457	0
0	8733	832.550991055985	1
0	8734	832.550991055985	2
0	8752	834.444717878457	1
0	8772	836.444717878457	0
0	8778	837.237159528556	1
0	8779	837.237159528556	2
0	8786	838.444717878457	1
0	8805	840.444717878457	0
0	8811	840.998549875228	1
0	8812	840.998549875228	2
0	8824	842.444717878457	1
0	8846	844.444717878457	0
0	8852	845.615244051869	1
0	8853	845.615244051869	2
0	8863	846.444717878457	1
0	8882	848.444717878457	0
0	8888	848.851414013768	1
0	8889	848.851414013768	2
0	8896	850.444717878457	1
0	8925	852.444717878457	0
0	8934	853.691727409585	1
0	8935	853.691727409585	2
0	8945	854.444717878457	1
0	8970	856.444717878457	0
0	8976	856.512767457611	1
0	8977	856.512767457611	2
0	8989	858.444717878457	1
0	9011	860.444717878457	0
0	9017	860.546918256291	1
0	9018	860.546918256291	2
0	9038	862.444717878457	1
0	9060	864.444717878457	0
0	9066	865.432154453858	1
0	9067	865.432154453858	2
0	9077	866.444717878457	1
0	9094	868.444717878457	0
0	9100	869.084149091527	1
0	9101	869.084149091527	2
0	9113	870.444717878457	1
0	9129	872.444717878457	0
0	9135	872.709655698567	1
0	9136	872.709655698567	2
0	9151	874.444717878457	1
0	9178	876.444717878457	0
0	9187	877.807257507106	1
0	9188	877.807257507106	2
0	9198	878.444717878457	1
0	9223	880.444717878457	0
0	9229	880.985017104335	1
0	9230	880.985017104335	2
0	9242	882.444717878457	1
0	9254	884.444717878457	0
0	9260	884.672667073092	1
0	9261	884.672667073092	2
0	9270	886.444717878457	1
0	9291	888.444717878457	0
0	9297	888.510043344488	1
0	9298	888.510043344488	2
0	9313	890.444717878457	1
0	9330	892.444717878457	0
0	9336	892.551432779511	1
0	9337	892.551432779511	2
0	9352	894.444717878457	1
0	9369	896.444717878457	0
0	9375	897.195519206628	1
0	9376	897.195519206628	2
0	9388	898.444717878457	1
0	9402	900.444717878457	0
0	9408	900.869664555692	1
0	9409	900.869664555692	2
0	9416	902.444717878457	1
0	9432	904.444717878457	0
0	9441	905.423760012103	1
0	9442	905.423760012103	2
0	9446	906.444717878457	1
0	9465	908.444717878457	0
0	9474	909.10769380434	1
0	9475	909.10769380434	2
0	9484	910.444717878457	1
0	9508	912.444717878457	0
0	9530	914.50052224589	1
0	9553	916.50052224589	0
0	9562	917.684777957217	1
0	9563	917.684777957217	2
0	9567	918.50052224589	1
0	9586	920.50052224589	0
0	9592	921.474267288174	1
0	9593	921.474267288174	2
0	9600	922.50052224589	1
0	9619	924.50052224589	0
0	9625	924.753946478072	1
0	9626	924.753946478072	2
0	9643	926.50052224589	1
0	9668	928.50052224589	0
0	9674	928.658774894514	1
0	9675	928.658774894514	2
0	9693	930.50052224589	1
0	9707	932.50052224589	0
0	9713	933.051623199023	1
0	9714	933.051623199023	2
0	9726	934.50052224589	1
0	9748	936.50052224589	0
0	9754	936.866992555376	1
0	9755	936.866992555376	2
0	9775	938.50052224589	1
0	9802	940.50052224589	0
0	9808	940.788268540841	1
0	9809	940.788268540841	2
0	9827	942.50052224589	1
0	9852	944.50052224589	0
0	9861	945.630936802402	1
0	9862	945.630936802402	2
0	9869	946.50052224589	1
0	9891	948.50052224589	0
0	9900	949.615081680835	1
0	9901	949.615081680835	2
0	9913	950.50052224589	1
0	9927	952.50052224589	0
0	9936	953.806536862291	1
0	9937	953.806536862291	2
0	9946	954.50052224589	1
0	9965	956.50052224589	0
0	9971	957.568186864071	1
0	9972	957.568186864071	2
0	9987	958.50052224589	1
0	10004	960.50052224589	0
0	10010	960.886644619668	1
0	10011	960.886644619668	2
0	10023	962.50052224589	1
0	10042	964.50052224589	0
0	10048	965.374335592258	1
0	10049	965.374335592258	2
0	10064	966.50052224589	1
0	10081	968.50052224589	0
0	10087	969.402495425111	1
0	10088	969.402495425111	2
0	10100	970.50052224589	1
0	10127	972.50052224589	0
0	10133	972.612740527233	1
0	10134	972.612740527233	2
0	10149	974.50052224589	1
0	10171	976.50052224589	0
0	10183	978.323021101964	1
0	10184	978.323021101964	2
0	10188	978.50052224589	1
0	10205	980.50052224589	0
0	10211	980.953104952035	1
0	10212	980.953104952035	2
0	10234	982.50052224589	1
0	10251	984.50052224589	0
0	10257	985.610537529413	1
0	10258	985.610537529413	2
0	10268	986.50052224589	1
0	10282	988.50052224589	0
0	10288	988.672063214071	1
0	10289	988.672063214071	2
0	10306	990.50052224589	1
0	10325	992.50052224589	0
0	10334	993.343638135111	1
0	10335	993.343638135111	2
0	10347	994.50052224589	1
0	10364	996.50052224589	0
0	10370	996.593241015117	1
0	10371	996.593241015117	2
0	10391	998.50052224589	1
0	10413	1000.50052224589	0
0	10419	1000.725993044039	1
0	10420	1000.725993044039	2
0	10438	1002.50052224589	1
0	10460	1004.50052224589	0
0	10475	1006.326981234797	1
0	10476	1006.326981234797	2
0	10477	1006.50052224589	1
0	10499	1008.50052224589	0
0	10505	1008.79984779525	1
0	10506	1008.79984779525	2
0	10523	1010.50052224589	1
0	10548	1012.50052224589	0
0	10560	1013.552772297235	1
0	10561	1013.552772297235	2
0	10573	1014.50052224589	1
0	10587	1016.50052224589	0
0	10593	1016.708669708492	1
0	10594	1016.708669708492	2
0	10606	1018.50052224589	1
0	10620	1020.50052224589	0
0	10626	1020.648498370891	1
0	10627	1020.648498370891	2
0	10644	1022.50052224589	1
0	10666	1024.50052224589	0
0	10672	1025.261787497832	1
0	10673	1025.261787497832	2
0	10688	1026.50052224589	1
0	10705	1028.50052224589	0
0	10711	1028.683694577315	1
0	10712	1028.683694577315	2
0	10727	1030.50052224589	1
0	10741	1032.50052224589	0
0	10747	1032.762133877059	1
0	10748	1032.762133877059	2
0	10755	1034.50052224589	1
0	10779	1036.50052224589	0
0	10791	1037.879138735289	1
0	10792	1037.879138735289	2
0	10796	1038.50052224589	1
0	10823	1040.50052224589	0
0	10829	1040.565691727124	1
0	10830	1040.565691727124	2
0	10845	1042.50052224589	1
0	10867	1044.50052224589	0
0	10873	1045.157709205881	1
0	10874	1045.157709205881	2
0	10894	1046.50052224589	1
0	10919	1048.50052224589	0
0	10925	1049.028536694602	1
0	10926	1049.028536694602	2
0	10944	1050.50052224589	1
0	10966	1052.50052224589	0
0	10972	1052.682083637699	1
0	10973	1052.682083637699	2
0	10993	1054.50052224589	1
0	11015	1056.50052224589	0
0	11021	1057.35924503388	1
0	11022	1057.35924503388	2
0	11045	1058.50052224589	1
0	11065	1060.50052224589	0
0	11074	1061.88942759484	1
0	11075	1061.88942759484	2
0	11082	1062.50052224589	1
0	11099	1064.50052224589	0
0	11105	1064.82949982354	1
0	11106	1064.82949982354	2
0	11115	1066.50052224589	1
0	11139	1068.50052224589	0
0	11145	1068.682804637324	1
0	11146	1068.682804637324	2
0	11166	1070.50052224589	1
0	11196	1072.50052224589	0
0	11202	1073.186537757964	1
0	11203	1073.186537757964	2
0	11221	1074.50052224589	1
0	11246	1076.50052224589	0
0	11252	1076.811917114694	1
0	11253	1076.811917114694	2
0	11271	1078.50052224589	1
0	11298	1080.50052224589	0
0	11304	1080.753267159033	1
0	11305	1080.753267159033	2
0	11323	1082.50052224589	1
0	11338	1084.50052224589	0
0	11344	1084.814928245549	1
0	11345	1084.814928245549	2
0	11362	1086.50052224589	1
0	11381	1088.50052224589	0
0	11387	1089.033545982735	1
0	11388	1089.033545982735	2
0	11408	1090.50052224589	1
0	11428	1092.50052224589	0
0	11434	1092.519283273983	1
0	11435	1092.519283273983	2
0	11455	1094.50052224589	1
0	11472	1096.50052224589	0
0	11478	1096.750388421856	1
0	11479	1096.750388421856	2
0	11494	1098.50052224589	1
0	11508	1100.50052224589	0
0	11514	1100.666202471942	1
0	11515	1100.666202471942	2
0	11530	1102.50052224589	1
0	11549	1104.50052224589	0
0	11555	1105.384494656632	1
0	11556	1105.384494656632	2
0	11571	1106.50052224589	1
0	11588	1108.50052224589	0
0	11594	1108.793394378471	1
0	11595	1108.793394378471	2
0	11607	1110.50052224589	1
0	11631	1112.50052224589	0
0	11637	1112.992337357685	1
0	11638	1112.992337357685	2
0	11656	1114.50052224589	1
0	11681	1116.50052224589	0
0	11687	1116.530257076283	1
0	11688	1116.530257076283	2
0	11713	1118.50052224589	1
0	11738	1120.50052224589	0
0	11744	1120.530931916619	1
0	11745	1120.530931916619	2
0	11763	1122.50052224589	1
0	11788	1124.50052224589	0
0	11797	1125.308193924266	1
0	11798	1125.308193924266	2
0	11813	1126.50052224589	1
0	11830	1128.50052224589	0
0	11836	1128.701619941475	1
0	11837	1128.701619941475	2
0	11854	1130.50052224589	1
0	11876	1132.50052224589	0
0	11885	1133.420288412521	1
0	11886	1133.420288412521	2
0	11898	1134.50052224589	1
0	11920	1136.50052224589	0
0	11932	1137.694417596354	1
0	11933	1137.694417596354	2
0	11937	1138.50052224589	1
0	11959	1140.50052224589	0
0	11968	1141.032936499633	1
0	11969	1141.032936499633	2
0	11981	1142.50052224589	1
0	11995	1144.50052224589	0
0	12001	1144.719908110145	1
0	12002	1144.719908110145	2
0	12014	1146.50052224589	1
0	12033	1148.50052224589	0
0	12039	1148.771250787373	1
0	12040	1148.771250787373	2
0	12055	1150.50052224589	1
0	12077	1152.50052224589	0
0	12083	1153.352124986634	1
0	12084	1153.352124986634	2
0	12099	1154.50052224589	1
0	12121	1156.50052224589	0
0	12130	1157.778038709668	1
0	12131	1157.778038709668	2
0	12138	1158.50052224589	1
0	12160	1160.50052224589	0
0	12169	1161.922046716492	1
0	12170	1161.922046716492	2
0	12174	1162.50052224589	1
0	12188	1164.50052224589	0
0	12194	1164.918929688478	1
0	12195	1164.918929688478	2
0	12204	1166.50052224589	1
0	12228	1168.50052224589	0
0	12234	1168.692689958728	1
0	12235	1168.692689958728	2
0	12250	1170.50052224589	1
0	12272	1172.50052224589	0
0	12278	1172.98675900349	1
0	12279	1172.98675900349	2
0	12299	1174.50052224589	1
0	12316	1176.50052224589	0
0	12322	1176.640974032612	1
0	12323	1176.640974032612	2
0	12346	1178.50052224589	1