version 3
run k_MM1_lbqf-23-20221127-16:03:35-25264
attr configname k_MM1_lbqf
attr datetime 20221127-16:03:35
attr datetimef 20221127-160335
attr experiment k_MM1_lbqf
attr inifile omnetpp.ini
attr iterationvars "$time=2.0, $num=5, $0=33434, $1=56673, $2=23567"
attr iterationvarsd time=2.0/num=5/33434/56673/23567
attr iterationvarsf time=2.0,num=5,33434,56673,23567-
attr measurement "$time=2.0, $num=5, $0=33434, $1=56673, $2=23567"
attr network lbqfkMM1
attr processid 25264
attr repetition 3
attr replication #3
attr resultdir results
attr runnumber 23
attr seedset 23
itervar num 5
itervar time 2.0
config description "MM1 module k-times lbqf"
config network lbqfkMM1
config **.interArrivalTime "truncnormal(uniform(0.5s, 1.5s), uniform(0.25s, 0.75s))"
config **.serviceTime 2.0s
config **.c 5
config **.capacity 10000
config record-eventlog false
config **.scalar-recording true
config **.vector-recording true
config repeat 4
config seed-1-mt 33434
config seed-2-mt 56673
config seed-3-mt 23567
config output-vector-file k_MM1_lbqf-5-2.0-results/3.vec
config output-scalar-file k_MM1_lbqf-5-2.0-results/3.sca

vector 0 lbqfkMM1.mm1[0] queueLength:vector ETV
attr interpolationmode none
attr recordingmode vector
attr title "queue length"
vector 1 lbqfkMM1.mm1[1] queueLength:vector ETV
attr interpolationmode none
attr recordingmode vector
attr title "queue length"
vector 2 lbqfkMM1.mm1[0] util:vector ETV
attr interpolationmode none
attr recordingmode vector
attr title resources
vector 3 lbqfkMM1.mm1[2] queueLength:vector ETV
attr interpolationmode none
attr recordingmode vector
attr title "queue length"
vector 4 lbqfkMM1.mm1[1] util:vector ETV
attr interpolationmode none
attr recordingmode vector
attr title resources
vector 5 lbqfkMM1.mm1[3] queueLength:vector ETV
attr interpolationmode none
attr recordingmode vector
attr title "queue length"
vector 6 lbqfkMM1.mm1[2] util:vector ETV
attr interpolationmode none
attr recordingmode vector
attr title resources
vector 7 lbqfkMM1.mm1[3] util:vector ETV
attr interpolationmode none
attr recordingmode vector
attr title resources
vector 8 lbqfkMM1.mm1[4] queueLength:vector ETV
attr interpolationmode none
attr recordingmode vector
attr title "queue length"
vector 9 lbqfkMM1.mm1[4] util:vector ETV
attr interpolationmode none
attr recordingmode vector
attr title resources
0	5	10	1
0	11	12	0
0	17	12.378699911532	1
0	18	12.378699911532	2
0	27	14	1
0	46	16	0
0	52	16.419416729446	1
0	53	16.419416729446	2
0	63	18	1
0	87	20	0
0	93	20.144165104749	1
0	94	20.144165104749	2
0	114	22	1
0	136	24	0
0	142	24.260095939965	1
0	143	24.260095939965	2
0	161	26	1
0	186	28	0
0	192	28.491992463961	1
0	193	28.491992463961	2
0	208	30	1
0	225	32	0
0	231	32.509192908316	1
0	232	32.509192908316	2
0	244	34	1
0	258	36	0
0	264	36.553768987477	1
0	265	36.553768987477	2
0	272	38	1
0	286	40	0
0	292	41.017716397564	1
0	293	41.017716397564	2
0	302	42	1
0	308	44	0
0	314	44.026025356926	1
0	315	44.026025356926	2
0	329	46	1
0	343	48	0
0	352	49.457271077656	1
0	353	49.457271077656	2
0	357	50	1
0	376	52	0
0	382	52.509235452101	1
0	383	52.509235452101	2
0	390	54	1
0	419	56	0
0	425	56.301982609025	1
0	426	56.301982609025	2
0	444	58	1
0	474	60	0
0	480	60.166988939352	1
0	481	60.166988939352	2
0	504	62	1
0	515	62.457003083834	2
0	516	62.457003083834	3
0	539	64	2
0	564	66	1
0	584	68	0
0	590	68.45082947881	1
0	591	68.45082947881	2
0	609	70	1
0	629	72	0
0	635	72.001698975175	1
0	636	72.001698975175	2
0	651	74	1
0	670	76	0
0	679	77.219618786045	1
0	680	77.219618786045	2
0	687	78	1
0	709	80	0
0	715	80.809105959231	1
0	716	80.809105959231	2
0	733	82	1
0	750	84	0
0	756	84.650487543961	1
0	757	84.650487543961	2
0	767	86	1
0	791	88	0
0	797	88.919776400755	1
0	798	88.919776400755	2
0	813	90	1
0	838	92	0
0	844	92.445795265225	1
0	845	92.445795265225	2
0	860	94	1
0	892	96	0
0	898	96.387972652822	1
0	899	96.387972652822	2
0	917	98	1
0	937	100	0
0	943	100.269768247106	1
0	944	100.269768247106	2
0	959	102	1
0	973	104	0
0	979	104.637919425937	1
0	980	104.637919425937	2
0	992	106	1
0	1009	108	0
0	1015	108.117772785472	1
0	1016	108.117772785472	2
0	1028	110	1
0	1042	112	0
0	1048	112.585964465596	1
0	1049	112.585964465596	2
0	1056	114	1
0	1072	116	0
0	1078	116.104705025014	1
0	1079	116.104705025014	2
0	1091	118	1
0	1110	120	0
0	1116	121.061154305198	1
0	1117	121.061154305198	2
0	1127	122	1
0	1154	124	0
0	1160	124.260353479222	1
0	1161	124.260353479222	2
0	1176	126	1
0	1198	128	0
0	1210	129.598857967554	1
0	1211	129.598857967554	2
0	1215	130	1
0	1237	132	0
0	1243	132.257070844028	1
0	1244	132.257070844028	2
0	1256	134	1
0	1278	136	0
0	1293	137.836054080549	1
0	1294	137.836054080549	2
0	1295	138	1
0	1309	140	0
0	1315	140.648334128788	1
0	1316	140.648334128788	2
0	1325	142	1
0	1336	144	0
0	1342	144.011023639382	1
0	1343	144.011023639382	2
0	1355	146	1
0	1369	148	0
0	1375	148.200980994463	1
0	1376	148.200980994463	2
0	1388	150	1
0	1407	152	0
0	1413	152.080067582775	1
0	1414	152.080067582775	2
0	1429	154	1
0	1454	156	0
0	1463	156.589598515541	1
0	1464	156.589598515541	2
0	1481	158	1
0	1503	160	0
0	1509	160.340758649822	1
0	1510	160.340758649822	2
0	1530	162	1
0	1550	164	0
0	1556	164.611255658816	1
0	1557	164.611255658816	2
0	1575	166	1
0	1594	168	0
0	1600	168.430519215414	1
0	1601	168.430519215414	2
0	1616	170	1
0	1646	172	0
0	1652	172.335004467641	1
0	1653	172.335004467641	2
0	1671	174	1
0	1688	176	0
0	1694	176.564773266446	1
0	1695	176.564773266446	2
0	1702	178	1
0	1726	180	0
0	1735	181.555514635146	1
0	1736	181.555514635146	2
0	1743	182	1
0	1765	184	0
0	1771	184.902774313498	1
0	1772	184.902774313498	2
0	1779	186	1
0	1798	188	0
0	1804	189.13633014337	1
0	1805	189.13633014337	2
0	1817	190	1
0	1841	192	0
0	1847	192.708647270344	1
0	1848	192.708647270344	2
0	1871	194	1
0	1891	196	0
0	1897	196.824300803087	1
0	1898	196.824300803087	2
0	1913	198	1
0	1930	200	0
0	1936	200.69736374502	1
0	1937	200.69736374502	2
0	1959	202	1
0	1979	204	0
0	1985	204.711956202529	1
0	1986	204.711956202529	2
0	1999	206	1
0	2028	208	0
0	2034	208.577439764531	1
0	2035	208.577439764531	2
0	2053	210	1
0	2078	212	0
0	2084	212.829571890168	1
0	2085	212.829571890168	2
0	2100	214	1
0	2125	216	0
0	2131	216.92391624714	1
0	2132	216.92391624714	2
0	2152	218	1
0	2179	220	0
0	2188	221.143881498175	1
0	2189	221.143881498175	2
0	2204	222	1
0	2224	224	0
0	2230	224.143264173829	1
0	2231	224.143264173829	2
0	2246	226	1
0	2268	228	0
0	2274	228.672060304935	1
0	2275	228.672060304935	2
0	2285	230	1
0	2309	232	0
0	2315	233.002497991582	1
0	2316	233.002497991582	2
0	2326	234	1
0	2348	236	0
0	2354	236.226471586391	1
0	2355	236.226471586391	2
0	2372	238	1
0	2389	240	0
0	2395	240.203544553603	1
0	2396	240.203544553603	2
0	2411	242	1
0	2425	244	0
0	2431	244.209654496185	1
0	2432	244.209654496185	2
0	2449	246	1
0	2476	248	0
0	2488	249.174422162635	1
0	2489	249.174422162635	2
0	2496	250	1
0	2521	252	0
0	2527	253.04821300827	1
0	2528	253.04821300827	2
0	2538	254	1
0	2557	256	0
0	2566	257.765460165961	1
0	2567	257.765460165961	2
0	2571	258	1
0	2585	260	0
0	2591	260.005163941734	1
0	2592	260.005163941734	2
0	2611	262	1
0	2622	262.375445439787	2
0	2623	262.375445439787	3
0	2643	264	2
0	2668	266	1
0	2674	266.291372912534	2
0	2675	266.291372912534	3
0	2693	268	2
0	2718	270	1
0	2748	272	0
0	2757	272.623706542802	1
0	2758	272.623706542802	2
0	2778	274	1
0	2798	276	0
0	2807	276.439190411879	1
0	2808	276.439190411879	2
0	2828	278	1
0	2848	280	0
0	2854	280.034351544012	1
0	2855	280.034351544012	2
0	2875	282	1
0	2892	284	0
0	2901	284.96744838797	1
0	2902	284.96744838797	2
0	2909	286	1
0	2928	288	0
0	2934	288.239936144124	1
0	2935	288.239936144124	2
0	2947	290	1
0	2974	292	0
0	2980	292.223239328641	1
0	2981	292.223239328641	2
0	2996	294	1
0	3026	296	0
0	3035	296.450401565889	1
0	3036	296.450401565889	2
0	3051	298	1
0	3076	300	0
0	3085	300.732610887884	1
0	3086	300.732610887884	2
0	3096	302	1
0	3115	304	0
0	3124	304.755836139353	1
0	3125	304.755836139353	2
0	3129	306	1
0	3148	308	0
0	3157	308.496565823705	1
0	3158	308.496565823705	2
0	3167	310	1
0	3184	312	0
0	3190	312.044223708127	1
0	3191	312.044223708127	2
0	3211	314	1
0	3230	316	0
0	3236	316.316772783879	1
0	3237	316.316772783879	2
0	3257	318	1
0	3279	320	0
0	3294	321.114570705071	1
0	3295	321.114570705071	2
0	3299	322	1
0	3324	324	0
0	3330	324.338293999579	1
0	3331	324.338293999579	2
0	3346	326	1
0	3368	328	0
0	3374	328.445423445428	1
0	3375	328.445423445428	2
0	3390	330	1
0	3409	332	0
0	3418	332.685649939152	1
0	3419	332.685649939152	2
0	3431	334	1
0	3448	336	0
0	3454	336.391769736096	1
0	3455	336.391769736096	2
0	3462	338	1
0	3476	340	0
0	3482	340.947759019401	1
0	3483	340.947759019401	2
0	3492	342	1
0	3513	344	0
0	3522	345.119433555018	1
0	3523	345.119433555018	2
0	3538	346	1
0	3568	348	0
0	3577	348.934645909923	1
0	3578	348.934645909923	2
0	3588	350	1
0	3618	352	0
0	3627	353.416911960214	1
0	3628	353.416911960214	2
0	3635	354	1
0	3657	356	0
0	3663	356.166381743327	1
0	3664	356.166381743327	2
0	3676	358	1
0	3698	360	0
0	3704	361.013363747022	1
0	3705	361.013363747022	2
0	3720	362	1
0	3739	364	0
0	3745	364.519569022686	1
0	3746	364.519569022686	2
0	3766	366	1
0	3791	368	0
0	3797	368.130094391113	1
0	3798	368.130094391113	2
0	3816	370	1
0	3841	372	0
0	3847	373.16085936907	1
0	3848	373.16085936907	2
0	3858	374	1
0	3872	376	0
0	3878	376.125353645782	1
0	3879	376.125353645782	2
0	3888	378	1
0	3902	380	0
0	3911	381.366418888626	1
0	3912	381.366418888626	2
0	3916	382	1
0	3932	384	0
0	3938	384.384342042705	1
0	3939	384.384342042705	2
0	3951	386	1
0	3970	388	0
0	3976	388.784190379013	1
0	3977	388.784190379013	2
0	3992	390	1
0	4017	392	0
0	4023	392.692538956889	1
0	4024	392.692538956889	2
0	4039	394	1
0	4058	396	0
0	4064	396.92514332082	1
0	4065	396.92514332082	2
0	4080	398	1
0	4102	400	0
0	4108	400.1848554738	1
0	4109	400.1848554738	2
0	4124	402	1
0	4141	404	0
0	4147	404.683577502417	1
0	4148	404.683577502417	2
0	4170	406	1
0	4200	408	0
0	4206	408.873006179113	1
0	4207	408.873006179113	2
0	4220	410	1
0	4236	410.686251580401	2
0	4237	410.686251580401	3
0	4250	412	2
0	4275	414	1
0	4302	416	0
0	4308	416.439092229315	1
0	4309	416.439092229315	2
0	4327	418	1
0	4352	420	0
0	4358	420.880459793897	1
0	4359	420.880459793897	2
0	4369	422	1
0	4396	424	0
0	4405	425.054202912087	1
0	4406	425.054202912087	2
0	4413	426	1
0	4440	428	0
0	4446	428.482300426567	1
0	4447	428.482300426567	2
0	4462	430	1
0	4487	432	0
0	4499	433.044515692442	1
0	4500	433.044515692442	2
0	4512	434	1
0	4529	436	0
0	4535	436.20659424909	1
0	4536	436.20659424909	2
0	4543	438	1
0	4559	440	0
0	4565	441.139297712611	1
0	4566	441.139297712611	2
0	4573	442	1
0	4592	444	0
0	4601	445.630994052234	1
0	4602	445.630994052234	2
0	4606	446	1
0	4620	448	0
0	4626	448.515188094845	1
0	4627	448.515188094845	2
0	4636	450	1
0	4655	452	0
0	4667	453.618565585375	1
0	4668	453.618565585375	2
0	4669	454	1
0	4683	456	0
0	4689	456.040417692793	1
0	4690	456.040417692793	2
0	4707	458	1
0	4726	460	0
0	4732	460.086801493202	1
0	4733	460.086801493202	2
0	4751	462	1
0	4781	464	0
0	4787	464.134539492465	1
0	4788	464.134539492465	2
0	4803	466	1
0	4825	468	0
0	4834	469.102491067577	1
0	4835	469.102491067577	2
0	4845	470	1
0	4867	472	0
0	4873	472.211251009057	1
0	4874	472.211251009057	2
0	4886	474	1
0	4905	476	0
0	4911	476.112866410097	1
0	4912	476.112866410097	2
0	4922	478	1
0	4949	480	0
0	4961	481.588656404964	1
0	4962	481.588656404964	2
0	4966	482	1
0	4983	484	0
0	4989	484.142138391425	1
0	4990	484.142138391425	2
0	5004	486	1
0	5031	488	0
0	5040	489.546251247869	1
0	5041	489.546251247869	2
0	5048	490	1
0	5065	492	0
0	5071	492.241301261339	1
0	5072	492.241301261339	2
0	5087	494	1
0	5103	496	0
0	5112	496.441240145226	1
0	5113	496.441240145226	2
0	5130	498	1
0	5147	500	0
0	5156	500.637270437366	1
0	5157	500.637270437366	2
0	5169	502	1
0	5191	504	0
0	5200	504.645643631782	1
0	5201	504.645643631782	2
0	5208	506	1
0	5235	508	0
0	5241	508.284161487018	1
0	5242	508.284161487018	2
0	5262	510	1
0	5284	512	0
0	5290	512.588454794831	1
0	5291	512.588454794831	2
0	5309	514	1
0	5339	516	0
0	5348	516.732897398758	1
0	5349	516.732897398758	2
0	5359	518	1
0	5389	520	0
0	5404	521.592227129542	1
0	5405	521.592227129542	2
0	5411	522	1
0	5428	524	0
0	5434	525.092206222766	1
0	5435	525.092206222766	2
0	5442	526	1
0	5461	528	0
0	5467	528.088904482844	1
0	5468	528.088904482844	2
0	5480	530	1
0	5502	532	0
0	5511	533.509487509676	1
0	5512	533.509487509676	2
0	5519	534	1
0	5538	536	0
0	5544	537.371700969499	1
0	5545	537.371700969499	2
0	5552	538	1
0	5566	540	0
0	5572	540.86064830615	1
0	5573	540.86064830615	2
0	5577	542	1
0	5593	544	0
0	5599	544.116671662624	1
0	5600	544.116671662624	2
0	5612	546	1
0	5634	548	0
0	5640	548.295785539663	1
0	5641	548.295785539663	2
0	5656	550	1
0	5673	552	0
0	5679	552.365258201003	1
0	5680	552.365258201003	2
0	5692	554	1
0	5711	556	0
0	5717	556.719783406424	1
0	5718	556.719783406424	2
0	5725	558	1
0	5749	560	0
0	5755	560.242146171746	1
0	5756	560.242146171746	2
0	5771	562	1
0	5801	564	0
0	5807	564.044156108649	1
0	5808	564.044156108649	2
0	5826	566	1
0	5851	568	0
0	5866	569.612675969	1
0	5867	569.612675969	2
0	5868	570	1
0	5887	572	0
0	5893	572.239591857138	1
0	5894	572.239591857138	2
0	5906	574	1
0	5925	576	0
0	5934	577.312863546824	1
0	5935	577.312863546824	2
0	5942	578	1
0	5964	580	0
0	5970	580.322595465768	1
0	5971	580.322595465768	2
0	5993	582	1
0	6013	584	0
0	6025	585.077733396994	1
0	6026	585.077733396994	2
0	6038	586	1
0	6052	588	0
0	6058	588.52280119768	1
0	6059	588.52280119768	2
0	6071	590	1
0	6090	592	0
0	6096	592.323206478647	1
0	6097	592.323206478647	2
0	6112	594	1
0	6129	596	0
0	6135	596.086022152119	1
0	6136	596.086022152119	2
0	6153	598	1
0	6178	600	0
0	6184	600.259191894552	1
0	6185	600.259191894552	2
0	6203	602	1
0	6217	604	0
0	6226	604.386559172833	1
0	6227	604.386559172833	2
0	6244	606	1
0	6266	608	0
0	6272	608.355536432371	1
0	6273	608.355536432371	2
0	6293	610	1
0	6318	612	0
0	6324	612.554120976219	1
0	6325	612.554120976219	2
0	6343	614	1
0	6360	616	0
0	6366	616.025863969398	1
0	6367	616.025863969398	2
0	6387	618	1
0	6404	620	0
0	6410	620.157042195259	1
0	6411	620.157042195259	2
0	6426	622	1
0	6448	624	0
0	6454	624.672028281279	1
0	6455	624.672028281279	2
0	6462	626	1
0	6481	628	0
0	6487	628.752579382635	1
0	6488	628.752579382635	2
0	6500	630	1
0	6527	632	0
0	6533	632.485653251756	1
0	6534	632.485653251756	2
0	6552	634	1
0	6582	636	0
0	6588	636.946742168289	1
0	6589	636.946742168289	2
0	6599	638	1
0	6616	640	0
0	6622	640.110597994041	1
0	6623	640.110597994041	2
0	6638	642	1
0	6662	644	0
0	6668	644.432446864422	1
0	6669	644.432446864422	2
0	6679	646	1
0	6701	648	0
0	6707	648.77376755701	1
0	6708	648.77376755701	2
0	6723	650	1
0	6745	652	0
0	6751	652.486023789561	1
0	6752	652.486023789561	2
0	6767	654	1
0	6794	656	0
0	6806	657.403060103007	1
0	6807	657.403060103007	2
0	6811	658	1
0	6828	660	0
0	6834	660.591592943011	1
0	6835	660.591592943011	2
0	6852	662	1
0	6874	664	0
0	6880	664.027437511664	1
0	6881	664.027437511664	2
0	6904	666	1
0	6929	668	0
0	6935	668.566947490124	1
0	6936	668.566947490124	2
0	6954	670	1
0	6978	671.364069757636	2
0	6979	671.364069757636	3
0	6983	672	2
0	7008	674	1
0	7033	676	0
0	7045	676.497718992292	1
0	7046	676.497718992292	2
0	7053	678	1
0	7078	680	0
0	7084	680.1639976215	1
0	7085	680.1639976215	2
0	7107	682	1
0	7132	684	0
0	7138	684.029222833514	1
0	7139	684.029222833514	2
0	7157	686	1
0	7187	688	0
0	7202	689.441774553018	1
0	7203	689.441774553018	2
0	7207	690	1
0	7229	692	0
0	7235	692.169742830805	1
0	7236	692.169742830805	2
0	7251	694	1
0	7268	696	0
0	7274	696.518706454476	1
0	7275	696.518706454476	2
0	7292	698	1
0	7311	700	0
0	7320	700.468285297911	1
0	7321	700.468285297911	2
0	7328	702	1
0	7350	704	0
0	7356	704.134118991338	1
0	7357	704.134118991338	2
0	7379	706	1
0	7399	708	0
0	7405	708.342497363193	1
0	7406	708.342497363193	2
0	7424	710	1
0	7441	712	0
0	7447	712.292451131598	1
0	7448	712.292451131598	2
0	7468	714	1
0	7482	716	0
0	7488	716.45404125053	1
0	7489	716.45404125053	2
0	7504	718	1
0	7526	720	0
0	7532	720.334252927263	1
0	7533	720.334252927263	2
0	7550	722	1
0	7577	724	0
0	7586	725.128002293868	1
0	7587	725.128002293868	2
0	7602	726	1
0	7622	728	0
0	7631	728.581333334436	1
0	7632	728.581333334436	2
0	7644	730	1
0	7671	732	0
0	7680	732.876160383968	1
0	7681	732.876160383968	2
0	7688	734	1
0	7710	736	0
0	7719	736.873825968952	1
0	7720	736.873825968952	2
0	7727	738	1
0	7751	740	0
0	7760	741.281992977274	1
0	7761	741.281992977274	2
0	7768	742	1
0	7790	744	0
0	7796	745.058727831869	1
0	7797	745.058727831869	2
0	7809	746	1
0	7823	748	0
0	7829	748.603482281871	1
0	7830	748.603482281871	2
0	7842	750	1
0	7864	752	0
0	7870	752.486546253486	1
0	7871	752.486546253486	2
0	7881	754	1
0	7900	756	0
0	7906	757.176842617761	1
0	7907	757.176842617761	2
0	7914	758	1
0	7933	760	0
0	7942	761.437916251779	1
0	7943	761.437916251779	2
0	7947	762	1
0	7961	764	0
0	7967	764.118915095618	1
0	7968	764.118915095618	2
0	7980	766	1
0	7994	768	0
0	8000	768.099983689557	1
0	8001	768.099983689557	2
0	8018	770	1
0	8037	772	0
0	8043	772.57737106015	1
0	8044	772.57737106015	2
0	8054	774	1
0	8071	776	0
0	8077	776.416967442949	1
0	8078	776.416967442949	2
0	8090	778	1
0	8101	780	0
0	8107	780.857739886883	1
0	8108	780.857739886883	2
0	8115	782	1
0	8134	784	0
0	8140	784.132289488254	1
0	8141	784.132289488254	2
0	8153	786	1
0	8175	788	0
0	8184	789.059017772134	1
0	8185	789.059017772134	2
0	8197	790	1
0	8219	792	0
0	8225	792.401788992336	1
0	8226	792.401788992336	2
0	8236	794	1
0	8260	796	0
0	8266	796.578303995476	1
0	8267	796.578303995476	2
0	8287	798	1
0	8312	800	0
0	8318	800.154735962229	1
0	8319	800.154735962229	2
0	8342	802	1
0	8367	804	0
0	8373	804.274330977482	1
0	8374	804.274330977482	2
0	8397	806	1
0	8422	808	0
0	8431	809.164977830625	1
0	8432	809.164977830625	2
0	8442	810	1
0	8464	812	0
0	8470	812.771605373846	1
0	8471	812.771605373846	2
0	8488	814	1
0	8508	816	0
0	8514	816.731051834213	1
0	8515	816.731051834213	2
0	8535	818	1
0	8557	820	0
0	8563	820.414385867681	1
0	8564	820.414385867681	2
0	8584	822	1
0	8609	824	0
0	8618	825.283948883643	1
0	8619	825.283948883643	2
0	8629	826	1
0	8643	828	0
0	8649	828.176618689665	1
0	8650	828.176618689665	2
0	8662	830	1
0	8681	832	0
0	8687	832.476603667786	1
0	8688	832.476603667786	2
0	8703	834	1
0	8725	836	0
0	8731	836.754224428951	1
0	8732	836.754224428951	2
0	8742	838	1
0	8761	840	0
0	8767	840.890920013862	1
0	8768	840.890920013862	2
0	8775	842	1
0	8794	844	0
0	8800	845.06856508507	1
0	8801	845.06856508507	2
0	8808	846	1
0	8822	848	0
0	8828	848.525399348933	1
0	8829	848.525399348933	2
0	8843	850	1
0	8857	852	0
0	8866	853.416614535772	1
0	8867	853.416614535772	2
0	8871	854	1
0	8890	856	0
0	8896	856.043971613293	1
0	8897	856.043971613293	2
0	8912	858	1
0	8934	860	0
0	8940	860.838029717099	1
0	8941	860.838029717099	2
0	8953	862	1
0	8975	864	0
0	8981	864.975706461801	1
0	8982	864.975706461801	2
0	8997	866	1
0	9019	868	0
0	9025	869.149473198548	1
0	9026	869.149473198548	2
0	9036	870	1
0	9055	872	0
0	9064	872.656352870657	1
0	9065	872.656352870657	2
0	9077	874	1
0	9091	876	0
0	9097	877.014863719674	1
0	9098	877.014863719674	2
0	9105	878	1
0	9129	880	0
0	9135	880.02453184309	1
0	9136	880.02453184309	2
0	9161	882	1
0	9181	884	0
0	9190	884.879397823198	1
0	9191	884.879397823198	2
0	9201	886	1
0	9218	888	0
0	9224	888.240358556278	1
0	9225	888.240358556278	2
0	9234	890	1
0	9263	892	0
0	9285	894.039957003345	1
0	9308	896.039957003345	0
0	9317	897.513491028132	1
0	9318	897.513491028132	2
0	9322	898.039957003345	1
0	9336	900.039957003345	0
0	9342	900.506795014917	1
0	9343	900.506795014917	2
0	9355	902.039957003345	1
0	9374	904.039957003345	0
0	9380	904.430850909162	1
0	9381	904.430850909162	2
0	9393	906.039957003345	1
0	9410	908.039957003345	0
0	9416	908.703372839191	1
0	9417	908.703372839191	2
0	9427	910.039957003345	1
0	9448	912.039957003345	0
0	9454	912.277818626396	1
0	9455	912.277818626396	2
0	9470	914.039957003345	1
0	9487	916.039957003345	0
0	9496	917.68491313691	1
0	9497	917.68491313691	2
0	9501	918.039957003345	1
0	9520	920.039957003345	0
0	9526	921.034501091565	1
0	9527	921.034501091565	2
0	9534	922.039957003345	1
0	9553	924.039957003345	0
0	9559	925.029646612774	1
0	9560	925.029646612774	2
0	9567	926.039957003345	1
0	9591	928.039957003345	0
0	9597	928.772561496751	1
0	9598	928.772561496751	2
0	9608	930.039957003345	1
0	9630	932.039957003345	0
0	9636	932.466854334492	1
0	9637	932.466854334492	2
0	9649	934.039957003345	1
0	9676	936.039957003345	0
0	9682	936.280046715251	1
0	9683	936.280046715251	2
0	9708	938.039957003345	1
0	9728	940.039957003345	0
0	9734	940.146526973362	1
0	9735	940.146526973362	2
0	9763	942.039957003345	1
0	9788	944.039957003345	0
0	9794	944.363613910622	1
0	9795	944.363613910622	2
0	9808	946.039957003345	1
0	9843	948.039957003345	0
0	9849	948.379402354308	1
0	9850	948.379402354308	2
0	9873	950.039957003345	1
0	9879	950.361971979478	2
0	9880	950.361971979478	3
0	9898	952.039957003345	2
0	9933	954.039957003345	1
0	9953	956.039957003345	0
0	9959	956.465709332073	1
0	9960	956.465709332073	2
0	9978	958.039957003345	1
0	9998	960.039957003345	0
0	10004	960.208895412456	1
0	10005	960.208895412456	2
0	10023	962.039957003345	1
0	10045	964.039957003345	0
0	10051	964.823205655259	1
0	10052	964.823205655259	2
0	10062	966.039957003345	1
0	10081	968.039957003345	0
0	10087	969.348157099315	1
0	10088	969.348157099315	2
0	10095	970.039957003345	1
0	10119	972.039957003345	0
0	10138	974.290630591402	1
0	10153	976.290630591402	0
0	10159	977.004887653587	1
0	10160	977.004887653587	2
0	10169	978.290630591402	1
0	10180	980.290630591402	0
0	10186	981.240814409386	1
0	10187	981.240814409386	2
0	10194	982.290630591402	1
0	10213	984.290630591402	0
0	10219	984.690826716807	1
0	10220	984.690826716807	2
0	10237	986.290630591402	1
0	10262	988.290630591402	0
0	10268	989.473383323947	1
0	10269	989.473383323947	2
0	10282	990.290630591402	1
0	10306	992.290630591402	0
0	10325	994.305746580617	1
0	10345	996.305746580617	0
0	10351	997.485533195888	1
0	10352	997.485533195888	2
0	10364	998.305746580617	1
0	10391	1000.305746580617	0
0	10397	1001.068364816936	1
0	10398	1001.068364816936	2
0	10408	1002.305746580617	1
0	10425	1004.305746580617	0
0	10431	1004.765337146047	1
0	10432	1004.765337146047	2
0	10449	1006.305746580617	1
0	10466	1008.305746580617	0
0	10472	1008.964266878896	1
0	10473	1008.964266878896	2
0	10488	1010.305746580617	1
0	10499	1012.305746580617	0
0	10505	1012.463498333996	1
0	10506	1012.463498333996	2
0	10513	1014.305746580617	1
0	10527	1016.305746580617	0
0	10533	1016.57153474715	1
0	10534	1016.57153474715	2
0	10543	1018.305746580617	1
0	10554	1020.305746580617	0
0	10560	1020.7477067001	1
0	10561	1020.7477067001	2
0	10573	1022.305746580617	1
0	10592	1024.305746580617	0
0	10598	1025.127020639492	1
0	10599	1025.127020639492	2
0	10614	1026.305746580617	1
0	10636	1028.305746580617	0
0	10642	1028.542012035634	1
0	10643	1028.542012035634	2
0	10658	1030.305746580617	1
0	10675	1032.305746580617	0
0	10681	1032.656906737745	1
0	10682	1032.656906737745	2
0	10694	1034.305746580617	1
0	10716	1036.305746580617	0
0	10725	1037.245785990392	1
0	10726	1037.245785990392	2
0	10733	1038.305746580617	1
0	10747	1040.305746580617	0
0	10753	1041.461644373143	1
0	10754	1041.461644373143	2
0	10758	1042.305746580617	1
0	10774	1044.305746580617	0
0	10780	1044.317255732979	1
0	10781	1044.317255732979	2
0	10798	1046.305746580617	1
0	10825	1048.305746580617	0
0	10843	1050.278844345835	1
0	10844	1050.278844345835	2
0	10845	1050.305746580617	1
0	10870	1052.305746580617	0
0	10876	1052.511063524046	1
0	10877	1052.511063524046	2
0	10897	1054.305746580617	1
0	10919	1056.305746580617	0
0	10928	1057.227662244781	1
0	10929	1057.227662244781	2
0	10936	1058.305746580617	1
0	10953	1060.305746580617	0
0	10959	1060.975097889254	1
0	10960	1060.975097889254	2
0	10967	1062.305746580617	1
0	10983	1064.305746580617	0
0	10989	1064.89334959678	1
0	10990	1064.89334959678	2
0	11002	1066.305746580617	1
0	11024	1068.305746580617	0
0	11033	1069.172074637509	1
0	11034	1069.172074637509	2
0	11046	1070.305746580617	1
0	11068	1072.305746580617	0
0	11074	1073.201747381717	1
0	11075	1073.201747381717	2
0	11090	1074.305746580617	1
0	11112	1076.305746580617	0
0	11118	1077.145529053485	1
0	11119	1077.145529053485	2
0	11129	1078.305746580617	1
0	11153	1080.305746580617	0
0	11159	1081.566734315542	1
0	11160	1081.566734315542	2
0	11170	1082.305746580617	1
0	11197	1084.305746580617	0
0	11203	1085.263071595487	1
0	11204	1085.263071595487	2
0	11214	1086.305746580617	1
0	11236	1088.305746580617	0
0	11242	1089.686296393353	1
0	11243	1089.686296393353	2
0	11250	1090.305746580617	1
0	11274	1092.305746580617	0
0	11280	1093.432809481512	1
0	11281	1093.432809481512	2
0	11296	1094.305746580617	1
0	11316	1096.305746580617	0
0	11322	1096.678057316646	1
0	11323	1096.678057316646	2
0	11340	1098.305746580617	1
0	11364	1100.305746580617	0
0	11370	1100.685898765279	1
0	11371	1100.685898765279	2
0	11389	1102.305746580617	1
0	11409	1104.305746580617	0
0	11415	1104.576518817882	1
0	11416	1104.576518817882	2
0	11423	1106.305746580617	1
0	11442	1108.305746580617	0
0	11448	1108.425472395268	1
0	11449	1108.425472395268	2
0	11461	1110.305746580617	1
0	11493	1112.305746580617	0
0	11505	1113.792246955847	1
0	11506	1113.792246955847	2
0	11513	1114.305746580617	1
0	11538	1116.305746580617	0
0	11550	1117.808244694738	1
0	11551	1117.808244694738	2
0	11555	1118.305746580617	1
0	11569	1120.305746580617	0
0	11575	1120.969996193032	1
0	11576	1120.969996193032	2
0	11588	1122.305746580617	1
0	11599	1124.305746580617	0
0	11605	1124.714624719234	1
0	11606	1124.714624719234	2
0	11618	1126.305746580617	1
0	11645	1128.305746580617	0
0	11651	1128.9205357767	1
0	11652	1128.9205357767	2
0	11662	1130.305746580617	1
0	11689	1132.305746580617	0
0	11695	1132.618349424188	1
0	11696	1132.618349424188	2
0	11706	1134.305746580617	1
0	11728	1136.305746580617	0
0	11734	1136.411542154419	1
0	11735	1136.411542154419	2
0	11750	1138.305746580617	1
0	11769	1140.305746580617	0
0	11775	1140.5488164522	1
0	11776	1140.5488164522	2
0	11791	1142.305746580617	1
0	11813	1144.305746580617	0
0	11819	1144.505829153163	1
0	11820	1144.505829153163	2
0	11835	1146.305746580617	1
0	11852	1148.305746580617	0
0	11858	1148.723626953418	1
0	11859	1148.723626953418	2
0	11871	1150.305746580617	1
0	11885	1152.305746580617	0
0	11891	1152.995018222191	1
0	11892	1152.995018222191	2
0	11904	1154.305746580617	1
0	11923	1156.305746580617	0
0	11942	1158.546916770431	1
0	11957	1160.546916770431	0
0	11963	1161.300012645662	1
0	11964	1161.300012645662	2
0	11973	1162.546916770431	1
0	11989	1164.546916770431	0
0	11998	1165.627605869298	1
0	11999	1165.627605869298	2
0	12011	1166.546916770431	1
0	12028	1168.546916770431	0
0	12034	1168.916462348907	1
0	12035	1168.916462348907	2
0	12047	1170.546916770431	1
0	12071	1172.546916770431	0
0	12077	1173.078446660078	1
0	12078	1173.078446660078	2
0	12091	1174.546916770431	1
0	12121	1176.546916770431	0
0	12127	1177.740830126109	1
0	12128	1177.740830126109	2
0	12138	1178.546916770431	1
0	12160	1180.546916770431	0
0	12166	1181.175813197208	1
0	12167	1181.175813197208	2
0	12174	1182.546916770431	1
0	12198	1184.546916770431	0
0	12204	1186.081880994463	1
0	12205	1186.081880994463	2
0	12220	1186.546916770431	1
0	12237	1188.546916770431	0
0	12243	1190.119536679165	1
0	12244	1190.119536679165	2
0	12251	1190.546916770431	1
0	12270	1192.546916770431	0
0	12276	1192.592676820245	1
0	12277	1192.592676820245	2
0	12289	1194.546916770431	1
0	12311	1196.546916770431	0
0	12317	1197.046370084177	1
0	12318	1197.046370084177	2
0	12333	1198.546916770431	1
0	12347	1200.546916770431	0
0	12353	1201.714549795558	1
0	12354	1201.714549795558	2
0	12371	1202.546916770431	1
0	12391	1204.546916770431	0
0	12397	1204.987191056172	1
0	12398	1204.987191056172	2
0	12413	1206.546916770431	1
0	12432	1208.546916770431	0
0	12438	1208.676092112494	1
0	12439	1208.676092112494	2
0	12459	1210.546916770431	1
0	12476	1212.546916770431	0
0	12482	1213.809841646048	1
0	12483	1213.809841646048	2
0	12490	1214.546916770431	1
0	12514	1216.546916770431	0
0	12520	1217.320762719402	1
0	12521	1217.320762719402	2
0	12541	1218.546916770431	1
0	12558	1220.546916770431	0
0	12564	1221.095247460641	1
0	12565	1221.095247460641	2
0	12583	1222.546916770431	1
0	12600	1224.546916770431	0
0	12606	1225.102230810778	1
0	12607	1225.102230810778	2
0	12619	1226.546916770431	1
0	12641	1228.546916770431	0
0	12660	1230.597468064792	1
0	12672	1232.597468064792	0
0	12678	1233.956848443622	1
0	12679	1233.956848443622	2
0	12688	1234.597468064792	1
0	12699	1236.597468064792	0
0	12705	1236.87031873023	1
0	12706	1236.87031873023	2
0	12723	1238.597468064792	1
0	12745	1240.597468064792	0
0	12751	1240.729439447933	1
0	12752	1240.729439447933	2
0	12770	1242.597468064792	1
0	12787	1244.597468064792	0
0	12793	1244.89856180655	1
0	12794	1244.89856180655	2
0	12801	1246.597468064792	1
0	12815	1248.597468064792	0
0	12821	1248.945130085279	1
0	12822	1248.945130085279	2
0	12831	1250.597468064792	1
0	12850	1252.597468064792	0
0	12856	1253.400002524573	1
0	12857	1253.400002524573	2
0	12864	1254.597468064792	1
0	12888	1256.597468064792	0
0	12897	1257.867796510519	1
0	12898	1257.867796510519	2
0	12905	1258.597468064792	1
0	12927	1260.597468064792	0
0	12933	1261.094787809846	1
0	12934	1261.094787809846	2
0	12949	1262.597468064792	1
0	12963	1264.597468064792	0
0	12969	1264.695445854885	1
0	12970	1264.695445854885	2
0	12987	1266.597468064792	1
0	13009	1268.597468064792	0
0	13018	1269.050923227276	1
0	13019	1269.050923227276	2
0	13034	1270.597468064792	1
0	13051	1272.597468064792	0
0	13060	1273.536949821801	1
0	13061	1273.536949821801	2
0	13065	1274.597468064792	1
0	13079	1276.597468064792	0
0	13085	1276.683431090726	1
0	13086	1276.683431090726	2
0	13105	1278.597468064792	1
0	13135	1280.597468064792	0
0	13157	1282.706437051217	1
0	13172	1284.706437051217	0
0	13178	1284.740124274669	1
0	13179	1284.740124274669	2
0	13199	1286.706437051217	1
0	13221	1288.706437051217	0
0	13227	1289.30585652929	1
0	13228	1289.30585652929	2
0	13238	1290.706437051217	1
0	13262	1292.706437051217	0
0	13268	1292.857549589391	1