version 3
run k_MM1_lbqf-24-20221127-16:03:35-25264
attr configname k_MM1_lbqf
attr datetime 20221127-16:03:35
attr datetimef 20221127-160335
attr experiment k_MM1_lbqf
attr inifile omnetpp.ini
attr iterationvars "$time=2.5, $num=1, $0=53542, $1=75335, $2=34542"
attr iterationvarsd time=2.5/num=1/53542/75335/34542
attr iterationvarsf time=2.5,num=1,53542,75335,34542-
attr measurement "$time=2.5, $num=1, $0=53542, $1=75335, $2=34542"
attr network lbqfkMM1
attr processid 25264
attr repetition 0
attr replication #0
attr resultdir results
attr runnumber 24
attr seedset 24
itervar num 1
itervar time 2.5
config description "MM1 module k-times lbqf"
config network lbqfkMM1
config **.interArrivalTime "truncnormal(uniform(0.5s, 1.5s), uniform(0.25s, 0.75s))"
config **.serviceTime 2.5s
config **.c 1
config **.capacity 10000
config record-eventlog false
config **.scalar-recording true
config **.vector-recording true
config repeat 4
config seed-1-mt 53542
config seed-2-mt 75335
config seed-3-mt 34542
config output-vector-file k_MM1_lbqf-1-2.5-results/0.vec
config output-scalar-file k_MM1_lbqf-1-2.5-results/0.sca

vector 0 lbqfkMM1.mm1[0] queueLength:vector ETV
attr interpolationmode none
attr recordingmode vector
attr title "queue length"
vector 1 lbqfkMM1.mm1[0] util:vector ETV
attr interpolationmode none
attr recordingmode vector
attr title resources
0	5	10	1
0	9	12.042329050999	2
0	10	12.042329050999	3
0	11	12.5	2
0	17	13.828917040457	3
0	18	13.828917040457	4
0	22	14.881630056137	5
0	23	14.881630056137	6
0	24	15	5
0	30	16.06613196409	6
0	31	16.06613196409	7
0	35	16.348164484597	8
0	36	16.348164484597	9
0	40	17.041561815345	10
0	41	17.041561815345	11
0	42	17.5	10
0	48	19.039074099037	11
0	49	19.039074099037	12
0	50	20	11
0	56	20.000791316719	12
0	57	20.000791316719	13
0	61	20.555529287261	14
0	62	20.555529287261	15
0	66	20.793033997073	16
0	67	20.793033997073	17
0	71	20.85100265505	18
0	72	20.85100265505	19
0	76	21.400933597085	20
0	77	21.400933597085	21
0	78	22.5	20
0	84	24.310114417386	21
0	85	24.310114417386	22
0	86	25	21
0	92	26.373050707137	22
0	93	26.373050707137	23
0	97	27.233615002801	24
0	98	27.233615002801	25
0	99	27.5	24
0	105	29.308563715658	25
0	106	29.308563715658	26
0	110	29.874018183231	27
0	111	29.874018183231	28
0	112	30	27
0	118	30.429060595454	28
0	119	30.429060595454	29
0	123	30.82446344095	30
0	124	30.82446344095	31
0	128	31.594678705821	32
0	129	31.594678705821	33
0	130	32.5	32
0	136	32.634070275943	33
0	137	32.634070275943	34
0	141	32.823417944342	35
0	142	32.823417944342	36
0	146	34.468031116678	37
0	147	34.468031116678	38
0	148	35	37
0	154	35.023485785163	38
0	155	35.023485785163	39
0	159	36.147647049854	40
0	160	36.147647049854	41
0	164	37.383562806149	42
0	165	37.383562806149	43
0	166	37.5	42
0	172	38.107623083782	43
0	173	38.107623083782	44
0	177	38.792603002876	45
0	178	38.792603002876	46
0	182	39.398343755949	47
0	183	39.398343755949	48
0	187	39.654154894001	49
0	188	39.654154894001	50
0	189	40	49
0	195	40.974429179784	50
0	196	40.974429179784	51
0	200	41.68255279774	52
0	201	41.68255279774	53
0	205	42.229035106543	54
0	206	42.229035106543	55
0	207	42.5	54
0	213	43.192451161988	55
0	214	43.192451161988	56
0	218	44.804351956171	57
0	219	44.804351956171	58
0	220	45	57
0	226	46.554354553884	58
0	227	46.554354553884	59
0	228	47.5	58
0	234	48.695179210905	59
0	235	48.695179210905	60
0	239	49.136763018149	61
0	240	49.136763018149	62
0	241	50	61
0	247	50.483287601921	62
0	248	50.483287601921	63
0	252	51.688609709195	64
0	253	51.688609709195	65
0	254	52.5	64
0	260	52.819164394163	65
0	261	52.819164394163	66
0	265	54.009653120875	67
0	266	54.009653120875	68
0	267	55	67
0	273	55.277865144049	68
0	274	55.277865144049	69
0	278	56.185869569913	70
0	279	56.185869569913	71
0	280	57.5	70
0	286	57.633018793909	71
0	287	57.633018793909	72
0	291	57.732182534788	73
0	292	57.732182534788	74
0	296	58.205773407533	75
0	297	58.205773407533	76
0	301	59.187734327662	77
0	302	59.187734327662	78
0	303	60	77
0	309	60.31144835224	78
0	310	60.31144835224	79
0	314	60.76131053006	80
0	315	60.76131053006	81
0	319	61.547537985334	82
0	320	61.547537985334	83
0	324	62.255099607275	84
0	325	62.255099607275	85
0	326	62.5	84
0	332	63.067250421293	85
0	333	63.067250421293	86
0	337	64.18446116707	87
0	338	64.18446116707	88
0	339	65	87
0	345	65.078891408515	88
0	346	65.078891408515	89
0	350	65.275185010545	90
0	351	65.275185010545	91
0	355	66.347281980419	92
0	356	66.347281980419	93
0	357	67.5	92
0	363	67.679369570086	93
0	364	67.679369570086	94
0	368	68.783951413485	95
0	369	68.783951413485	96
0	373	69.620817917956	97
0	374	69.620817917956	98
0	375	70	97
0	381	71.979875289999	98
0	382	71.979875289999	99
0	386	72.427042560589	100
0	387	72.427042560589	101
0	388	72.5	100
0	394	73.918147198189	101
0	395	73.918147198189	102
0	396	75	101
0	402	75.287901478072	102
0	403	75.287901478072	103
0	407	75.801419634357	104
0	408	75.801419634357	105
0	412	76.142979673344	106
0	413	76.142979673344	107
0	414	77.5	106
0	420	77.804868313249	107
0	421	77.804868313249	108
0	425	79.040179733367	109
0	426	79.040179733367	110
0	427	80	109
0	433	80.205467918393	110
0	434	80.205467918393	111
0	438	81.534428901085	112
0	439	81.534428901085	113
0	440	82.5	112
0	446	82.688919239159	113
0	447	82.688919239159	114
0	451	84.331787272315	115
0	452	84.331787272315	116
0	453	85	115
0	459	85.736799417122	116
0	460	85.736799417122	117
0	464	86.341986147009	118
0	465	86.341986147009	119
0	466	87.5	118
0	472	87.616484220906	119
0	473	87.616484220906	120
0	477	88.895887438151	121
0	478	88.895887438151	122
0	479	90	121
0	485	90.033265387254	122
0	486	90.033265387254	123
0	490	91.254155140191	124
0	491	91.254155140191	125
0	492	92.5	124
0	498	92.833438801283	125
0	499	92.833438801283	126
0	503	93.947002383432	127
0	504	93.947002383432	128
0	508	94.698220803892	129
0	509	94.698220803892	130
0	510	95	129
0	516	95.904436049603	130
0	517	95.904436049603	131
0	521	97.43613024226	132
0	522	97.43613024226	133
0	523	97.5	132
0	529	97.90331118725	133
0	530	97.90331118725	134
0	531	100	133
0	537	100.534493845481	134
0	538	100.534493845481	135
0	542	101.294217074715	136
0	543	101.294217074715	137
0	544	102.5	136
0	550	102.752765711917	137
0	551	102.752765711917	138
0	555	103.471593982667	139
0	556	103.471593982667	140
0	560	104.683170821273	141
0	561	104.683170821273	142
0	562	105	141
0	568	106.794842680677	142
0	569	106.794842680677	143
0	570	107.5	142
0	576	107.918808720006	143
0	577	107.918808720006	144
0	581	109.110958056012	145
0	582	109.110958056012	146
0	583	110	145
0	589	111.043729026559	146
0	590	111.043729026559	147
0	594	111.634931755271	148
0	595	111.634931755271	149
0	599	112.291530668437	150
0	600	112.291530668437	151
0	601	112.5	150
0	607	112.675516338957	151
0	608	112.675516338957	152
0	612	113.588807291945	153
0	613	113.588807291945	154
0	614	115	153
0	620	115.243967260041	154
0	621	115.243967260041	155
0	625	116.862100663697	156
0	626	116.862100663697	157
0	630	117.369985294793	158
0	631	117.369985294793	159
0	632	117.5	158
0	638	118.377465619241	159
0	639	118.377465619241	160
0	643	119.336418349436	161
0	644	119.336418349436	162
0	645	120	161
0	651	120.345047713023	162
0	652	120.345047713023	163
0	656	121.174900126459	164
0	657	121.174900126459	165
0	661	121.991631014975	166
0	662	121.991631014975	167
0	663	122.5	166
0	669	123.172609480985	167
0	670	123.172609480985	168
0	674	124.008894234519	169
0	675	124.008894234519	170
0	676	125	169
0	682	125.271451888112	170
0	683	125.271451888112	171
0	687	125.76206727999	172
0	688	125.76206727999	173
0	692	125.887246779311	174
0	693	125.887246779311	175
0	697	126.457598231932	176
0	698	126.457598231932	177
0	699	127.5	176
0	705	128.542464278059	177
0	706	128.542464278059	178
0	710	129.263197250102	179
0	711	129.263197250102	180
0	715	129.487267521305	181
0	716	129.487267521305	182
0	717	130	181
0	723	130.984124805711	182
0	724	130.984124805711	183
0	728	131.815333979265	184
0	729	131.815333979265	185
0	733	132.435491724858	186
0	734	132.435491724858	187
0	735	132.5	186
0	741	133.630547024246	187
0	742	133.630547024246	188
0	746	134.623891058858	189
0	747	134.623891058858	190
0	748	135	189
0	754	135.708305914131	190
0	755	135.708305914131	191
0	759	136.565102404081	192
0	760	136.565102404081	193
0	761	137.5	192
0	767	137.889719665739	193
0	768	137.889719665739	194
0	772	139.499048740004	195
0	773	139.499048740004	196
0	774	140	195
0	780	140.348812712266	196
0	781	140.348812712266	197
0	785	140.472426161965	198
0	786	140.472426161965	199
0	790	142.467079476093	200
0	791	142.467079476093	201
0	792	142.5	200
0	798	143.634623144047	201
0	799	143.634623144047	202
0	800	145	201
0	806	145.040438830062	202
0	807	145.040438830062	203
0	811	146.609097070281	204
0	812	146.609097070281	205
0	816	147.05411956463	206
0	817	147.05411956463	207
0	818	147.5	206
0	824	147.936994027675	207
0	825	147.936994027675	208
0	826	150	207
0	832	150.075114107912	208
0	833	150.075114107912	209
0	837	151.761774757064	210
0	838	151.761774757064	211
0	839	152.5	210
0	845	152.717918023542	211
0	846	152.717918023542	212
0	850	153.7688255137	213
0	851	153.7688255137	214
0	855	154.953162610644	215
0	856	154.953162610644	216
0	857	155	215
0	863	155.806393739548	216
0	864	155.806393739548	217
0	868	156.749619561136	218
0	869	156.749619561136	219
0	870	157.5	218
0	876	158.156904476918	219
0	877	158.156904476918	220
0	881	158.927128991475	221
0	882	158.927128991475	222
0	883	160	221
0	889	160.529575164478	222
0	890	160.529575164478	223
0	894	160.790899864676	224
0	895	160.790899864676	225
0	899	162.046717187662	226
0	900	162.046717187662	227
0	901	162.5	226
0	907	163.352046802243	227
0	908	163.352046802243	228
0	912	164.076218916859	229
0	913	164.076218916859	230
0	914	165	229
0	920	165.604436771157	230
0	921	165.604436771157	231
0	925	166.766646637203	232
0	926	166.766646637203	233
0	927	167.5	232
0	933	167.611712722365	233
0	934	167.611712722365	234
0	938	168.276767875858	235
0	939	168.276767875858	236
0	943	168.737536822763	237
0	944	168.737536822763	238
0	948	168.933281101831	239
0	949	168.933281101831	240
0	953	169.730639448051	241
0	954	169.730639448051	242
0	955	170	241
0	961	170.534257341103	242
0	962	170.534257341103	243
0	966	171.368069415449	244
0	967	171.368069415449	245
0	971	171.683624228798	246
0	972	171.683624228798	247
0	973	172.5	246
0	979	173.822246708537	247
0	980	173.822246708537	248
0	981	175	247
0	987	175.722713649154	248
0	988	175.722713649154	249
0	992	176.667531858933	250
0	993	176.667531858933	251
0	997	177.115841029416	252
0	998	177.115841029416	253
0	999	177.5	252
0	1005	178.91400943308	253
0	1006	178.91400943308	254
0	1010	179.186697818947	255
0	1011	179.186697818947	256
0	1015	179.726213967418	257
0	1016	179.726213967418	258
0	1020	179.751155731582	259
0	1021	179.751155731582	260
0	1022	180	259
0	1028	180.469753797843	260
0	1029	180.469753797843	261
0	1033	181.921998475698	262
0	1034	181.921998475698	263
0	1035	182.5	262
0	1041	183.087531323536	263
0	1042	183.087531323536	264
0	1046	184.818739689398	265
0	1047	184.818739689398	266
0	1048	185	265
0	1054	187.174796212627	266
0	1055	187.174796212627	267
0	1056	187.5	266
0	1062	187.841775064541	267
0	1063	187.841775064541	268
0	1067	189.046562803023	269
0	1068	189.046562803023	270
0	1069	190	269
0	1075	190.754622481331	270
0	1076	190.754622481331	271
0	1080	192.211179725593	272
0	1081	192.211179725593	273
0	1082	192.5	272
0	1088	193.258960469181	273
0	1089	193.258960469181	274
0	1093	194.418904461045	275
0	1094	194.418904461045	276
0	1098	194.429791747327	277
0	1099	194.429791747327	278
0	1100	195	277
0	1106	195.391148109439	278
0	1107	195.391148109439	279
0	1111	197.098766144797	280
0	1112	197.098766144797	281
0	1113	197.5	280
0	1119	198.169393910895	281
0	1120	198.169393910895	282
0	1124	198.433025249035	283
0	1125	198.433025249035	284
0	1129	199.009102680009	285
0	1130	199.009102680009	286
0	1131	200	285
0	1137	200.362873650763	286
0	1138	200.362873650763	287
0	1142	201.214491750278	288
0	1143	201.214491750278	289
0	1147	201.963833875278	290
0	1148	201.963833875278	291
0	1149	202.5	290
0	1155	202.916142217621	291
0	1156	202.916142217621	292
0	1160	203.199965660946	293
0	1161	203.199965660946	294
0	1162	205	293
0	1168	205.131988724792	294
0	1169	205.131988724792	295
0	1173	205.595416532787	296
0	1174	205.595416532787	297
0	1178	205.876954933168	298
0	1179	205.876954933168	299
0	1183	206.399074043105	300
0	1184	206.399074043105	301
0	1185	207.5	300
0	1191	207.773538900295	301
0	1192	207.773538900295	302
0	1196	209.321521202039	303
0	1197	209.321521202039	304
0	1198	210	303
0	1204	210.446457405444	304
0	1205	210.446457405444	305
0	1209	212.326371234238	306
0	1210	212.326371234238	307
0	1211	212.5	306
0	1217	213.977278663665	307
0	1218	213.977278663665	308
0	1219	215	307
0	1225	215.444771560167	308
0	1226	215.444771560167	309
0	1230	216.224205492289	310
0	1231	216.224205492289	311
0	1232	217.5	310
0	1238	217.661928200363	311
0	1239	217.661928200363	312
0	1243	218.768433651721	313
0	1244	218.768433651721	314
0	1248	219.81479314057	315
0	1249	219.81479314057	316
0	1250	220	315
0	1256	220.771262759591	316
0	1257	220.771262759591	317
0	1261	221.681016039809	318
0	1262	221.681016039809	319
0	1263	222.5	318
0	1269	222.595721671775	319
0	1270	222.595721671775	320
0	1274	223.586630627628	321
0	1275	223.586630627628	322
0	1279	224.11077007307	323
0	1280	224.11077007307	324
0	1284	224.553050191892	325
0	1285	224.553050191892	326
0	1286	225	325
0	1292	225.032033035507	326
0	1293	225.032033035507	327
0	1297	225.728314866776	328
0	1298	225.728314866776	329
0	1302	226.776352060096	330
0	1303	226.776352060096	331
0	1304	227.5	330
0	1310	228.125168542405	331
0	1311	228.125168542405	332
0	1315	228.701698253095	333
0	1316	228.701698253095	334
0	1317	230	333
0	1323	230.591946297803	334
0	1324	230.591946297803	335
0	1328	231.995621550292	336
0	1329	231.995621550292	337
0	1330	232.5	336
0	1336	233.168311245987	337
0	1337	233.168311245987	338
0	1341	233.857848808903	339
0	1342	233.857848808903	340
0	1343	235	339
0	1349	235.240858645483	340
0	1350	235.240858645483	341
0	1354	236.323288434482	342
0	1355	236.323288434482	343
0	1359	237.054120805524	344
0	1360	237.054120805524	345
0	1361	237.5	344
0	1367	238.072649957337	345
0	1368	238.072649957337	346
0	1372	239.682001078029	347
0	1373	239.682001078029	348
0	1374	240	347
0	1380	240.380075801094	348
0	1381	240.380075801094	349
0	1385	241.917610197912	350
0	1386	241.917610197912	351
0	1387	242.5	350
0	1393	243.609849623911	351
0	1394	243.609849623911	352
0	1398	244.391997355019	353
0	1399	244.391997355019	354
0	1400	245	353
0	1406	245.019840362651	354
0	1407	245.019840362651	355
0	1411	246.307990264666	356
0	1412	246.307990264666	357
0	1416	247.384590076149	358
0	1417	247.384590076149	359
0	1418	247.5	358
0	1424	247.959268828002	359
0	1425	247.959268828002	360
0	1429	249.58189134715	361
0	1430	249.58189134715	362
0	1431	250	361
0	1437	250.381885848548	362
0	1438	250.381885848548	363
0	1442	250.788420337811	364
0	1443	250.788420337811	365
0	1447	252.265337390479	366
0	1448	252.265337390479	367
0	1449	252.5	366
0	1455	254.073429673965	367
0	1456	254.073429673965	368
0	1460	254.475273799741	369
0	1461	254.475273799741	370
0	1462	255	369
0	1468	255.328653041875	370
0	1469	255.328653041875	371
0	1473	255.614928885391	372
0	1474	255.614928885391	373
0	1475	257.5	372
0	1481	257.69637816715	373
0	1482	257.69637816715	374
0	1486	258.970101759329	375
0	1487	258.970101759329	376
0	1488	260	375
0	1494	260.053772712707	376
0	1495	260.053772712707	377
0	1499	261.307929393985	378
0	1500	261.307929393985	379
0	1504	261.848121471287	380
0	1505	261.848121471287	381
0	1506	262.5	380
0	1512	262.955514528692	381
0	1513	262.955514528692	382
0	1517	262.971720370996	383
0	1518	262.971720370996	384
0	1522	263.256711431651	385
0	1523	263.256711431651	386
0	1527	264.421848100634	387
0	1528	264.421848100634	388
0	1532	264.519138892796	389
0	1533	264.519138892796	390
0	1534	265	389
0	1540	265.373014079686	390
0	1541	265.373014079686	391
0	1545	266.329018601915	392
0	1546	266.329018601915	393
0	1550	267.254736646509	394
0	1551	267.254736646509	395
0	1552	267.5	394
0	1558	267.880135487388	395
0	1559	267.880135487388	396
0	1563	269.561470202121	397
0	1564	269.561470202121	398
0	1565	270	397
0	1571	270.4693620594	398
0	1572	270.4693620594	399
0	1576	271.849008675396	400
0	1577	271.849008675396	401
0	1581	272.492549626506	402
0	1582	272.492549626506	403
0	1583	272.5	402
0	1589	273.450512459475	403
0	1590	273.450512459475	404
0	1594	274.26237481004	405
0	1595	274.26237481004	406
0	1596	275	405
0	1602	275.777968393502	406
0	1603	275.777968393502	407
0	1607	275.80475870083	408
0	1608	275.80475870083	409
0	1612	277.226791896806	410
0	1613	277.226791896806	411
0	1614	277.5	410
0	1620	278.071319412093	411
0	1621	278.071319412093	412
0	1625	279.504273540923	413
0	1626	279.504273540923	414
0	1630	279.818860902038	415
0	1631	279.818860902038	416
0	1632	280	415
0	1638	280.135507152166	416
0	1639	280.135507152166	417
0	1643	281.458620819675	418
0	1644	281.458620819675	419
0	1645	282.5	418
0	1651	283.261411063712	419
0	1652	283.261411063712	420
0	1656	284.159087066289	421
0	1657	284.159087066289	422
0	1658	285	421
0	1664	285.237405654929	422
0	1665	285.237405654929	423
0	1669	285.298698287095	424
0	1670	285.298698287095	425
0	1674	286.053384180262	426
0	1675	286.053384180262	427
0	1679	287.392343549816	428
0	1680	287.392343549816	429
0	1681	287.5	428
0	1687	288.871643828311	429
0	1688	288.871643828311	430
0	1689	290	429
0	1695	290.453677176279	430
0	1696	290.453677176279	431
0	1697	292.5	430
0	1703	292.500596181384	431
0	1704	292.500596181384	432
0	1708	293.584778952463	433
0	1709	293.584778952463	434
0	1713	294.789970923265	435
0	1714	294.789970923265	436
0	1715	295	435
0	1721	295.554054130415	436
0	1722	295.554054130415	437
0	1726	296.147067368398	438
0	1727	296.147067368398	439
0	1731	297.086756520118	440
0	1732	297.086756520118	441
0	1733	297.5	440
0	1739	298.553456334417	441
0	1740	298.553456334417	442
0	1741	300	441
0	1747	300.036248986825	442
0	1748	300.036248986825	443
0	1752	300.589853869116	444
0	1753	300.589853869116	445
0	1757	301.477414074982	446
0	1758	301.477414074982	447
0	1762	302.350940147198	448
0	1763	302.350940147198	449
0	1764	302.5	448
0	1770	302.506377521783	449
0	1771	302.506377521783	450
0	1775	303.878082346683	451
0	1776	303.878082346683	452
0	1777	305	451
0	1783	305.810142824652	452
0	1784	305.810142824652	453
0	1788	306.598061621667	454
0	1789	306.598061621667	455
0	1793	307.082867680104	456
0	1794	307.082867680104	457
0	1795	307.5	456
0	1801	308.162241388915	457
0	1802	308.162241388915	458
0	1803	310	457
0	1809	310.010586754534	458
0	1810	310.010586754534	459
0	1814	310.323737915473	460
0	1815	310.323737915473	461
0	1819	311.202413426671	462
0	1820	311.202413426671	463
0	1824	312.252847804806	464
0	1825	312.252847804806	465
0	1826	312.5	464
0	1832	312.586788401093	465
0	1833	312.586788401093	466
0	1837	313.701343172713	467
0	1838	313.701343172713	468
0	1842	314.624056278624	469
0	1843	314.624056278624	470
0	1847	314.945537808065	471
0	1848	314.945537808065	472
0	1849	315	471
0	1855	316.379226873895	472
0	1856	316.379226873895	473
0	1860	316.476739541731	474
0	1861	316.476739541731	475
0	1862	317.5	474
0	1868	319.187746276539	475
0	1869	319.187746276539	476
0	1870	320	475
0	1876	320.006644256145	476
0	1877	320.006644256145	477
0	1881	320.431274573827	478
0	1882	320.431274573827	479
0	1886	321.156812253136	480
0	1887	321.156812253136	481
0	1891	322.433216042005	482
0	1892	322.433216042005	483
0	1893	322.5	482
0	1899	323.545700487988	483
0	1900	323.545700487988	484
0	1904	324.276201783133	485
0	1905	324.276201783133	486
0	1909	324.771376287611	487
0	1910	324.771376287611	488
0	1911	325	487
0	1917	325.805683000902	488
0	1918	325.805683000902	489
0	1919	327.5	488
0	1925	327.854341414736	489
0	1926	327.854341414736	490
0	1930	328.287118350601	491
0	1931	328.287118350601	492
0	1935	329.441223082578	493
0	1936	329.441223082578	494
0	1940	329.772115149873	495
0	1941	329.772115149873	496
0	1942	330	495
0	1948	330.92712825026	496
0	1949	330.92712825026	497
0	1953	332.194241988413	498
0	1954	332.194241988413	499
0	1955	332.5	498
0	1961	334.084238155851	499
0	1962	334.084238155851	500
0	1966	334.438199561563	501
0	1967	334.438199561563	502
0	1968	335	501
0	1974	335.942784816626	502
0	1975	335.942784816626	503
0	1976	337.5	502
0	1982	337.949513898209	503
0	1983	337.949513898209	504
0	1987	338.703446527466	505
0	1988	338.703446527466	506
0	1992	339.3486812985	507
0	1993	339.3486812985	508
0	1994	340	507
0	2000	340.102031728627	508
0	2001	340.102031728627	509
0	2005	341.128381544651	510
0	2006	341.128381544651	511
0	2010	342.175772826738	512
0	2011	342.175772826738	513
0	2015	342.31816210607	514
0	2016	342.31816210607	515
0	2017	342.5	514
0	2023	343.181935667461	515
0	2024	343.181935667461	516
0	2028	343.785846115681	517
0	2029	343.785846115681	518
0	2030	345	517
0	2036	345.729099130292	518
0	2037	345.729099130292	519
0	2041	347.059316745646	520
0	2042	347.059316745646	521
0	2043	347.5	520
0	2049	347.946047298987	521
0	2050	347.946047298987	522
0	2054	348.385509305741	523
0	2055	348.385509305741	524
0	2059	349.820685670804	525
0	2060	349.820685670804	526
0	2061	350	525
0	2067	351.148452096047	526
0	2068	351.148452096047	527
0	2072	352.356393795557	528
0	2073	352.356393795557	529
0	2074	352.5	528
0	2080	353.377623907032	529
0	2081	353.377623907032	530
0	2085	354.995772967042	531
0	2086	354.995772967042	532
0	2087	355	531
0	2093	355.902656772859	532
0	2094	355.902656772859	533
0	2098	357.426366432365	534
0	2099	357.426366432365	535
0	2100	357.5	534
0	2106	358.062023192232	535
0	2107	358.062023192232	536
0	2111	358.50699099438	537
0	2112	358.50699099438	538
0	2116	358.533749173202	539
0	2117	358.533749173202	540
0	2121	359.496165992791	541
0	2122	359.496165992791	542
0	2123	360	541
0	2129	360.106410351444	542
0	2130	360.106410351444	543
0	2134	361.087392916889	544
0	2135	361.087392916889	545
0	2139	362.352392458977	546
0	2140	362.352392458977	547
0	2141	362.5	546
0	2147	363.173067103729	547
0	2148	363.173067103729	548
0	2152	363.531737394488	549
0	2153	363.531737394488	550
0	2157	364.015946210106	551
0	2158	364.015946210106	552
0	2159	365	551
0	2165	365.142281867901	552
0	2166	365.142281867901	553
0	2170	365.820532297052	554
0	2171	365.820532297052	555
0	2175	366.835708742628	556
0	2176	366.835708742628	557
0	2180	367.459821068029	558
0	2181	367.459821068029	559
0	2182	367.5	558
0	2188	368.297471477894	559
0	2189	368.297471477894	560
0	2193	369.912720785139	561
0	2194	369.912720785139	562
0	2195	370	561
0	2201	371.828979915459	562
0	2202	371.828979915459	563
0	2203	372.5	562
0	2209	373.694679485345	563
0	2210	373.694679485345	564
0	2214	374.761705236867	565
0	2215	374.761705236867	566
0	2216	375	565
0	2222	376.010597462752	566
0	2223	376.010597462752	567
0	2227	377.388822814668	568
0	2228	377.388822814668	569
0	2229	377.5	568
0	2235	379.329095681522	569
0	2236	379.329095681522	570
0	2240	379.561784906094	571
0	2241	379.561784906094	572
0	2242	380	571
0	2248	380.482701345357	572
0	2249	380.482701345357	573
0	2253	380.689320911719	574
0	2254	380.689320911719	575
0	2258	382.152496521691	576
0	2259	382.152496521691	577
0	2263	382.466039449103	578
0	2264	382.466039449103	579
0	2265	382.5	578
0	2271	383.312575432156	579
0	2272	383.312575432156	580
0	2276	384.856861921211	581
0	2277	384.856861921211	582
0	2278	385	581
0	2284	386.409617194887	582
0	2285	386.409617194887	583
0	2289	387.235867205866	584
0	2290	387.235867205866	585
0	2291	387.5	584
0	2297	388.331167335955	585
0	2298	388.331167335955	586
0	2302	389.200006227055	587
0	2303	389.200006227055	588
0	2307	389.963108480821	589
0	2308	389.963108480821	590
0	2309	390	589
0	2315	390.457466059872	590
0	2316	390.457466059872	591
0	2320	391.949241210967	592
0	2321	391.949241210967	593
0	2322	392.5	592
0	2328	393.303073034175	593
0	2329	393.303073034175	594
0	2333	394.179382366028	595
0	2334	394.179382366028	596
0	2338	394.761697760265	597
0	2339	394.761697760265	598
0	2340	395	597
0	2346	397.111098747484	598
0	2347	397.111098747484	599
0	2348	397.5	598
0	2354	398.584603356454	599
0	2355	398.584603356454	600
0	2359	399.576034627911	601
0	2360	399.576034627911	602
0	2361	400	601
0	2367	400.831955254724	602
0	2368	400.831955254724	603
0	2369	402.5	602
0	2375	402.635513291496	603
0	2376	402.635513291496	604
0	2380	404.882758753569	605
0	2381	404.882758753569	606
0	2382	405	605
0	2388	406.294725927006	606
0	2389	406.294725927006	607
0	2393	407.1513789825	608
0	2394	407.1513789825	609
0	2395	407.5	608
0	2401	408.764660220844	609
0	2402	408.764660220844	610
0	2406	409.369882330215	611
0	2407	409.369882330215	612
0	2408	410	611
0	2414	410.229521376554	612
0	2415	410.229521376554	613
0	2419	410.815258504565	614
0	2420	410.815258504565	615
0	2421	412.5	614
0	2427	412.823116514896	615
0	2428	412.823116514896	616
0	2432	414.504766712008	617
0	2433	414.504766712008	618
0	2434	415	617
0	2440	415.356221673137	618
0	2441	415.356221673137	619
0	2445	416.266270341585	620
0	2446	416.266270341585	621
0	2447	417.5	620
0	2453	417.507736403763	621
0	2454	417.507736403763	622
0	2458	419.137155939817	623
0	2459	419.137155939817	624
0	2463	419.696875575741	625
0	2464	419.696875575741	626
0	2465	420	625
0	2471	421.095847878151	626
0	2472	421.095847878151	627
0	2476	421.371441461224	628
0	2477	421.371441461224	629
0	2478	422.5	628
0	2484	422.632617629453	629
0	2485	422.632617629453	630
0	2489	423.753868559879	631
0	2490	423.753868559879	632
0	2494	424.691305877915	633
0	2495	424.691305877915	634
0	2496	425	633
0	2502	425.200605224132	634
0	2503	425.200605224132	635
0	2507	425.60724429102	636
0	2508	425.60724429102	637
0	2512	426.307781164399	638
0	2513	426.307781164399	639
0	2517	427.41549085068	640
0	2518	427.41549085068	641
0	2519	427.5	640
0	2525	428.421793072405	641
0	2526	428.421793072405	642
0	2527	430	641
0	2533	430.450688315389	642
0	2534	430.450688315389	643
0	2538	431.44386611631	644
0	2539	431.44386611631	645
0	2543	432.331060145926	646
0	2544	432.331060145926	647
0	2545	432.5	646
0	2551	433.240351411285	647
0	2552	433.240351411285	648
0	2556	434.261982630287	649
0	2557	434.261982630287	650
0	2561	434.722005024462	651
0	2562	434.722005024462	652
0	2566	434.835226910184	653
0	2567	434.835226910184	654
0	2568	435	653
0	2574	435.344170942765	654
0	2575	435.344170942765	655
0	2579	436.729608602841	656
0	2580	436.729608602841	657
0	2581	437.5	656
0	2587	437.758056813599	657
0	2588	437.758056813599	658
0	2592	438.782819024044	659
0	2593	438.782819024044	660
0	2594	440	659
0	2600	440.069412512123	660
0	2601	440.069412512123	661
0	2605	441.445043576654	662
0	2606	441.445043576654	663
0	2610	441.462824083962	664
0	2611	441.462824083962	665
0	2612	442.5	664
0	2618	442.580327633745	665
0	2619	442.580327633745	666
0	2623	443.007604781712	667
0	2624	443.007604781712	668
0	2628	444.50606520055	669
0	2629	444.50606520055	670
0	2630	445	669
0	2636	446.075380024461	670
0	2637	446.075380024461	671
0	2638	447.5	670
0	2644	447.920307707773	671
0	2645	447.920307707773	672
0	2649	448.091857194105	673
0	2650	448.091857194105	674
0	2654	448.826723426367	675
0	2655	448.826723426367	676
0	2659	449.999491040193	677
0	2660	449.999491040193	678
0	2661	450	677
0	2667	451.717082063459	678
0	2668	451.717082063459	679
0	2672	452.251532452448	680
0	2673	452.251532452448	681
0	2674	452.5	680
0	2680	453.464284822847	681
0	2681	453.464284822847	682
0	2685	454.738306040414	683
0	2686	454.738306040414	684
0	2687	455	683
0	2693	455.467851144208	684
0	2694	455.467851144208	685
0	2698	456.616123455644	686
0	2699	456.616123455644	687
0	2703	457.366811703394	688
0	2704	457.366811703394	689
0	2705	457.5	688
0	2711	458.543163445258	689
0	2712	458.543163445258	690
0	2716	459.820738547058	691
0	2717	459.820738547058	692
0	2718	460	691
0	2724	461.224875651858	692
0	2725	461.224875651858	693
0	2729	461.643926328028	694
0	2730	461.643926328028	695
0	2731	462.5	694
0	2737	463.671355515473	695
0	2738	463.671355515473	696
0	2742	464.189297254949	697
0	2743	464.189297254949	698
0	2747	464.409675751222	699
0	2748	464.409675751222	700
0	2749	465	699
0	2755	465.235452428851	700
0	2756	465.235452428851	701
0	2760	466.728021689736	702
0	2761	466.728021689736	703
0	2762	467.5	702
0	2768	468.721557712189	703
0	2769	468.721557712189	704
0	2773	469.926382499565	705
0	2774	469.926382499565	706
0	2775	470	705
0	2781	470.83621490782	706
0	2782	470.83621490782	707
0	2783	472.5	706
0	2789	472.907712487714	707
0	2790	472.907712487714	708
0	2794	473.938424560651	709
0	2795	473.938424560651	710
0	2796	475	709
0	2802	475.217847318208	710
0	2803	475.217847318208	711
0	2807	476.955975515629	712
0	2808	476.955975515629	713
0	2809	477.5	712
0	2815	478.569283967211	713
0	2816	478.569283967211	714
0	2820	479.131832685878	715
0	2821	479.131832685878	716
0	2825	479.635467481847	717
0	2826	479.635467481847	718
0	2827	480	717
0	2833	480.793955576938	718
0	2834	480.793955576938	719
0	2838	480.885607239786	720
0	2839	480.885607239786	721
0	2843	482.045300724838	722
0	2844	482.045300724838	723
0	2845	482.5	722
0	2851	482.507923344895	723
0	2852	482.507923344895	724
0	2856	484.103917698134	725
0	2857	484.103917698134	726
0	2861	484.782235034713	727
0	2862	484.782235034713	728
0	2863	485	727
0	2869	485.597572914622	728
0	2870	485.597572914622	729
0	2874	486.483102715671	730
0	2875	486.483102715671	731
0	2879	487.426296334334	732
0	2880	487.426296334334	733
0	2881	487.5	732
0	2887	488.220057928866	733
0	2888	488.220057928866	734
0	2892	489.072519422743	735
0	2893	489.072519422743	736
0	2894	490	735
0	2900	490.704831873723	736
0	2901	490.704831873723	737
0	2905	491.261144611775	738
0	2906	491.261144611775	739
0	2910	492.133320947761	740
0	2911	492.133320947761	741
0	2912	492.5	740
0	2918	493.45328017364	741
0	2919	493.45328017364	742
0	2923	494.466673717711	743
0	2924	494.466673717711	744
0	2925	495	743
0	2931	495.340545724256	744
0	2932	495.340545724256	745
0	2936	496.429148634567	746
0	2937	496.429148634567	747
0	2938	497.5	746
0	2944	498.445423624943	747