version 3
run k_MM1_lbqf-25-20221127-16:03:35-25264
attr configname k_MM1_lbqf
attr datetime 20221127-16:03:35
attr datetimef 20221127-160335
attr experiment k_MM1_lbqf
attr inifile omnetpp.ini
attr iterationvars "$time=2.5, $num=1, $0=45732, $1=35463, $2=67563"
attr iterationvarsd time=2.5/num=1/45732/35463/67563
attr iterationvarsf time=2.5,num=1,45732,35463,67563-
attr measurement "$time=2.5, $num=1, $0=45732, $1=35463, $2=67563"
attr network lbqfkMM1
attr processid 25264
attr repetition 1
attr replication #1
attr resultdir results
attr runnumber 25
attr seedset 25
itervar num 1
itervar time 2.5
config description "MM1 module k-times lbqf"
config network lbqfkMM1
config **.interArrivalTime "truncnormal(uniform(0.5s, 1.5s), uniform(0.25s, 0.75s))"
config **.serviceTime 2.5s
config **.c 1
config **.capacity 10000
config record-eventlog false
config **.scalar-recording true
config **.vector-recording true
config repeat 4
config seed-1-mt 45732
config seed-2-mt 35463
config seed-3-mt 67563
config output-vector-file k_MM1_lbqf-1-2.5-results/1.vec
config output-scalar-file k_MM1_lbqf-1-2.5-results/1.sca

vector 0 lbqfkMM1.mm1[0] queueLength:vector ETV
attr interpolationmode none
attr recordingmode vector
attr title "queue length"
vector 1 lbqfkMM1.mm1[0] util:vector ETV
attr interpolationmode none
attr recordingmode vector
attr title resources
0	5	10	1
0	9	10.64842006413	2
0	10	10.64842006413	3
0	14	11.508123388759	4
0	15	11.508123388759	5
0	19	12.40985388673	6
0	20	12.40985388673	7
0	21	12.5	6
0	27	13.867171173795	7
0	28	13.867171173795	8
0	32	14.949472031519	9
0	33	14.949472031519	10
0	34	15	9
0	40	16.203643055192	10
0	41	16.203643055192	11
0	45	16.580019036328	12
0	46	16.580019036328	13
0	50	16.879676785253	14
0	51	16.879676785253	15
0	55	17.476377254903	16
0	56	17.476377254903	17
0	57	17.5	16
0	63	18.287381608699	17
0	64	18.287381608699	18
0	68	19.681934146148	19
0	69	19.681934146148	20
0	70	20	19
0	76	20.909258121584	20
0	77	20.909258121584	21
0	81	21.88370941244	22
0	82	21.88370941244	23
0	83	22.5	22
0	89	22.783918449634	23
0	90	22.783918449634	24
0	94	24.033169913347	25
0	95	24.033169913347	26
0	96	25	25
0	102	25.01114743419	26
0	103	25.01114743419	27
0	107	25.889159277654	28
0	108	25.889159277654	29
0	112	27.483979111207	30
0	113	27.483979111207	31
0	114	27.5	30
0	120	29.33512708243	31
0	121	29.33512708243	32
0	122	30	31
0	128	30.382151906468	32
0	129	30.382151906468	33
0	133	30.901727201423	34
0	134	30.901727201423	35
0	138	31.998524728168	36
0	139	31.998524728168	37
0	140	32.5	36
0	146	33.819587051975	37
0	147	33.819587051975	38
0	151	34.949000614397	39
0	152	34.949000614397	40
0	153	35	39
0	159	36.288336840402	40
0	160	36.288336840402	41
0	161	37.5	40
0	167	37.710311815327	41
0	168	37.710311815327	42
0	172	37.747772006479	43
0	173	37.747772006479	44
0	177	37.995654331726	45
0	178	37.995654331726	46
0	182	39.814279454887	47
0	183	39.814279454887	48
0	184	40	47
0	190	40.28455936732	48
0	191	40.28455936732	49
0	195	41.218118545543	50
0	196	41.218118545543	51
0	200	41.944061871806	52
0	201	41.944061871806	53
0	202	42.5	52
0	208	42.543523114576	53
0	209	42.543523114576	54
0	213	44.411284458812	55
0	214	44.411284458812	56
0	215	45	55
0	221	45.224446682266	56
0	222	45.224446682266	57
0	226	45.866605327036	58
0	227	45.866605327036	59
0	231	46.138265803676	60
0	232	46.138265803676	61
0	236	47.470201854272	62
0	237	47.470201854272	63
0	238	47.5	62
0	244	48.608395395743	63
0	245	48.608395395743	64
0	249	49.566627359486	65
0	250	49.566627359486	66
0	251	50	65
0	257	51.623119271701	66
0	258	51.623119271701	67
0	259	52.5	66
0	265	52.870192881147	67
0	266	52.870192881147	68
0	270	54.025673348171	69
0	271	54.025673348171	70
0	272	55	69
0	278	55.255971461744	70
0	279	55.255971461744	71
0	283	56.131659418642	72
0	284	56.131659418642	73
0	288	57.40195375026	74
0	289	57.40195375026	75
0	290	57.5	74
0	296	58.107430446987	75
0	297	58.107430446987	76
0	301	59.133268532258	77
0	302	59.133268532258	78
0	303	60	77
0	309	60.499551572747	78
0	310	60.499551572747	79
0	314	60.896281262384	80
0	315	60.896281262384	81
0	319	61.214288327875	82
0	320	61.214288327875	83
0	321	62.5	82
0	327	62.874078222331	83
0	328	62.874078222331	84
0	332	63.820309611171	85
0	333	63.820309611171	86
0	334	65	85
0	340	66.612268487965	86
0	341	66.612268487965	87
0	345	67.241751195061	88
0	346	67.241751195061	89
0	347	67.5	88
0	353	69.168192590318	89
0	354	69.168192590318	90
0	358	69.494326081298	91
0	359	69.494326081298	92
0	360	70	91
0	366	70.6788160471	92
0	367	70.6788160471	93
0	371	71.590225896126	94
0	372	71.590225896126	95
0	373	72.5	94
0	379	72.502431351363	95
0	380	72.502431351363	96
0	384	72.855876845767	97
0	385	72.855876845767	98
0	389	74.111890530784	99
0	390	74.111890530784	100
0	394	74.310568290013	101
0	395	74.310568290013	102
0	396	75	101
0	402	75.682041940877	102
0	403	75.682041940877	103
0	404	77.5	102
0	410	78.327026063847	103
0	411	78.327026063847	104
0	415	78.971098598744	105
0	416	78.971098598744	106
0	420	79.159322188288	107
0	421	79.159322188288	108
0	422	80	107
0	428	80.562139710042	108
0	429	80.562139710042	109
0	430	82.5	108
0	436	82.614215029629	109
0	437	82.614215029629	110
0	441	83.572360837792	111
0	442	83.572360837792	112
0	446	84.42809161977	113
0	447	84.42809161977	114
0	448	85	113
0	454	85.168149419568	114
0	455	85.168149419568	115
0	459	86.073056322198	116
0	460	86.073056322198	117
0	464	86.474028395097	118
0	465	86.474028395097	119
0	469	86.930771096023	120
0	470	86.930771096023	121
0	471	87.5	120
0	477	88.578822711948	121
0	478	88.578822711948	122
0	479	90	121
0	485	90.391402042247	122
0	486	90.391402042247	123
0	490	92.038855027673	124
0	491	92.038855027673	125
0	492	92.5	124
0	498	92.774445522939	125
0	499	92.774445522939	126
0	503	93.482188458892	127
0	504	93.482188458892	128
0	508	94.737389655016	129
0	509	94.737389655016	130
0	510	95	129
0	516	95.363285394764	130
0	517	95.363285394764	131
0	521	96.341310498328	132
0	522	96.341310498328	133
0	526	96.823359327926	134
0	527	96.823359327926	135
0	528	97.5	134
0	534	98.027168543259	135
0	535	98.027168543259	136
0	539	99.018617844455	137
0	540	99.018617844455	138
0	541	100	137
0	547	100.029430245855	138
0	548	100.029430245855	139
0	552	100.615875668266	140
0	553	100.615875668266	141
0	557	101.124350721425	142
0	558	101.124350721425	143
0	562	102.245894914453	144
0	563	102.245894914453	145
0	564	102.5	144
0	570	103.356085032292	145
0	571	103.356085032292	146
0	575	104.317760054638	147
0	576	104.317760054638	148
0	577	105	147
0	583	106.223595544516	148
0	584	106.223595544516	149
0	588	107.323281863473	150
0	589	107.323281863473	151
0	590	107.5	150
0	596	108.489020579672	151
0	597	108.489020579672	152
0	601	109.47669251518	153
0	602	109.47669251518	154
0	603	110	153
0	609	110.700729641616	154
0	610	110.700729641616	155
0	614	110.94769862312	156
0	615	110.94769862312	157
0	619	111.90141423293	158
0	620	111.90141423293	159
0	621	112.5	158
0	627	113.429969042848	159
0	628	113.429969042848	160
0	632	113.958315350642	161
0	633	113.958315350642	162
0	637	114.794180986808	163
0	638	114.794180986808	164
0	639	115	163
0	645	115.813808257253	164
0	646	115.813808257253	165
0	650	116.828723136094	166
0	651	116.828723136094	167
0	652	117.5	166
0	658	118.854469778781	167
0	659	118.854469778781	168
0	660	120	167
0	666	120.018753769307	168
0	667	120.018753769307	169
0	671	120.93850156705	170
0	672	120.93850156705	171
0	676	121.293351023479	172
0	677	121.293351023479	173
0	681	121.697025468483	174
0	682	121.697025468483	175
0	683	122.5	174
0	689	123.429658034955	175
0	690	123.429658034955	176
0	694	124.377178755084	177
0	695	124.377178755084	178
0	696	125	177
0	702	125.65719650833	178
0	703	125.65719650833	179
0	707	126.965865373146	180
0	708	126.965865373146	181
0	709	127.5	180
0	715	128.015376717072	181
0	716	128.015376717072	182
0	720	128.638164018345	183
0	721	128.638164018345	184
0	725	129.323969011745	185
0	726	129.323969011745	186
0	730	129.996498839086	187
0	731	129.996498839086	188
0	732	130	187
0	738	131.622362448802	188
0	739	131.622362448802	189
0	740	132.5	188
0	746	132.991121358399	189
0	747	132.991121358399	190
0	751	133.74780685008	191
0	752	133.74780685008	192
0	756	134.95960400523	193
0	757	134.95960400523	194
0	758	135	193
0	764	135.522626688944	194
0	765	135.522626688944	195
0	769	136.003933249976	196
0	770	136.003933249976	197
0	774	136.903792864775	198
0	775	136.903792864775	199
0	776	137.5	198
0	782	137.969673304818	199
0	783	137.969673304818	200
0	787	139.721658158356	201
0	788	139.721658158356	202
0	789	140	201
0	795	140.43503868569	202
0	796	140.43503868569	203
0	800	140.495177737759	204
0	801	140.495177737759	205
0	805	141.928092389735	206
0	806	141.928092389735	207
0	807	142.5	206
0	813	143.058341653721	207
0	814	143.058341653721	208
0	818	144.263124495026	209
0	819	144.263124495026	210
0	820	145	209
0	826	145.073337058271	210
0	827	145.073337058271	211
0	831	146.528178834516	212
0	832	146.528178834516	213
0	836	147.029121019775	214
0	837	147.029121019775	215
0	838	147.5	214
0	844	148.014681178314	215
0	845	148.014681178314	216
0	849	149.2747075965	217
0	850	149.2747075965	218
0	851	150	217
0	857	150.312830356794	218
0	858	150.312830356794	219
0	862	152.182340156534	220
0	863	152.182340156534	221
0	867	152.458048511336	222
0	868	152.458048511336	223
0	869	152.5	222
0	875	153.199464695248	223
0	876	153.199464695248	224
0	880	153.678969449694	225
0	881	153.678969449694	226
0	885	153.803025441842	227
0	886	153.803025441842	228
0	890	153.988985278438	229
0	891	153.988985278438	230
0	895	154.27275727681	231
0	896	154.27275727681	232
0	900	154.809976145318	233
0	901	154.809976145318	234
0	902	155	233
0	908	156.372250511526	234
0	909	156.372250511526	235
0	913	157.103239130925	236
0	914	157.103239130925	237
0	915	157.5	236
0	921	158.479722235651	237
0	922	158.479722235651	238
0	926	159.791219254122	239
0	927	159.791219254122	240
0	928	160	239
0	934	161.345705120197	240
0	935	161.345705120197	241
0	939	161.999511188311	242
0	940	161.999511188311	243
0	944	162.384181877932	244
0	945	162.384181877932	245
0	946	162.5	244
0	952	162.638906063078	245
0	953	162.638906063078	246
0	957	163.376709327811	247
0	958	163.376709327811	248
0	962	164.732587234793	249
0	963	164.732587234793	250
0	964	165	249
0	970	166.674212674229	250
0	971	166.674212674229	251
0	972	167.5	250
0	978	167.82493172539	251
0	979	167.82493172539	252
0	983	168.871366898634	253
0	984	168.871366898634	254
0	985	170	253
0	991	170.622615270901	254
0	992	170.622615270901	255
0	993	172.5	254
0	999	172.771933682024	255
0	1000	172.771933682024	256
0	1004	173.370849678228	257
0	1005	173.370849678228	258
0	1009	174.999361771377	259
0	1010	174.999361771377	260
0	1011	175	259
0	1017	176.489956354766	260
0	1018	176.489956354766	261
0	1022	177.241963110792	262
0	1023	177.241963110792	263
0	1024	177.5	262
0	1030	178.739568026473	263
0	1031	178.739568026473	264
0	1035	179.473751951935	265
0	1036	179.473751951935	266
0	1037	180	265
0	1043	180.306091234711	266
0	1044	180.306091234711	267
0	1048	182.222081487463	268
0	1049	182.222081487463	269
0	1050	182.5	268
0	1056	184.615232568595	269
0	1057	184.615232568595	270
0	1058	185	269
0	1064	185.506525395446	270
0	1065	185.506525395446	271
0	1069	186.898884174891	272
0	1070	186.898884174891	273
0	1071	187.5	272
0	1077	188.001626318279	273
0	1078	188.001626318279	274
0	1082	189.237665612938	275
0	1083	189.237665612938	276
0	1084	190	275
0	1090	190.641756632976	276
0	1091	190.641756632976	277
0	1092	192.5	276
0	1098	192.807865615913	277
0	1099	192.807865615913	278
0	1103	193.884916420058	279
0	1104	193.884916420058	280
0	1105	195	279
0	1111	195.084772502111	280
0	1112	195.084772502111	281
0	1116	196.485184402437	282
0	1117	196.485184402437	283
0	1118	197.5	282
0	1124	197.545504736272	283
0	1125	197.545504736272	284
0	1129	198.33735924834	285
0	1130	198.33735924834	286
0	1134	199.027518307843	287
0	1135	199.027518307843	288
0	1139	199.798589893247	289
0	1140	199.798589893247	290
0	1144	199.820511236396	291
0	1145	199.820511236396	292
0	1146	200	291
0	1152	201.534614197217	292
0	1153	201.534614197217	293
0	1154	202.5	292
0	1160	202.547079686815	293
0	1161	202.547079686815	294
0	1165	204.247263229729	295
0	1166	204.247263229729	296
0	1170	204.800615732034	297
0	1171	204.800615732034	298
0	1172	205	297
0	1178	205.691448364179	298
0	1179	205.691448364179	299
0	1183	206.440624410264	300
0	1184	206.440624410264	301
0	1185	207.5	300
0	1191	207.806701634401	301
0	1192	207.806701634401	302
0	1196	209.087936284558	303
0	1197	209.087936284558	304
0	1201	209.925732317932	305
0	1202	209.925732317932	306
0	1203	210	305
0	1209	210.840556084945	306
0	1210	210.840556084945	307
0	1214	211.455056479428	308
0	1215	211.455056479428	309
0	1219	211.890156045596	310
0	1220	211.890156045596	311
0	1221	212.5	310
0	1227	212.55171984344	311
0	1228	212.55171984344	312
0	1232	213.808781800824	313
0	1233	213.808781800824	314
0	1234	215	313
0	1240	215.019089974277	314
0	1241	215.019089974277	315
0	1245	216.057209571951	316
0	1246	216.057209571951	317
0	1247	217.5	316
0	1253	218.622467470079	317
0	1254	218.622467470079	318
0	1255	220	317
0	1261	220.522196466654	318
0	1262	220.522196466654	319
0	1266	221.335171996624	320
0	1267	221.335171996624	321
0	1268	222.5	320
0	1274	222.528793851089	321
0	1275	222.528793851089	322
0	1279	224.429153695488	323
0	1280	224.429153695488	324
0	1284	224.928950061593	325
0	1285	224.928950061593	326
0	1286	225	325
0	1292	226.601033966372	326
0	1293	226.601033966372	327
0	1297	226.853297509474	328
0	1298	226.853297509474	329
0	1299	227.5	328
0	1305	227.719562738498	329
0	1306	227.719562738498	330
0	1310	228.845881725901	331
0	1311	228.845881725901	332
0	1315	229.918043363852	333
0	1316	229.918043363852	334
0	1317	230	333
0	1323	231.635530187691	334
0	1324	231.635530187691	335
0	1328	232.431733380959	336
0	1329	232.431733380959	337
0	1330	232.5	336
0	1336	233.553138004765	337
0	1337	233.553138004765	338
0	1338	235	337
0	1344	235.085888407972	338
0	1345	235.085888407972	339
0	1349	236.559454806296	340
0	1350	236.559454806296	341
0	1351	237.5	340
0	1357	237.743309028274	341
0	1358	237.743309028274	342
0	1362	238.437416202663	343
0	1363	238.437416202663	344
0	1364	240	343
0	1370	240.653412302985	344
0	1371	240.653412302985	345
0	1375	241.763640216467	346
0	1376	241.763640216467	347
0	1377	242.5	346
0	1383	242.710959768338	347
0	1384	242.710959768338	348
0	1388	244.217058546035	349
0	1389	244.217058546035	350
0	1390	245	349
0	1396	245.68233795279	350
0	1397	245.68233795279	351
0	1401	245.748915127562	352
0	1402	245.748915127562	353
0	1406	246.753368139303	354
0	1407	246.753368139303	355
0	1411	247.154028930867	356
0	1412	247.154028930867	357
0	1413	247.5	356
0	1419	248.407216271513	357
0	1420	248.407216271513	358
0	1424	248.477120698002	359
0	1425	248.477120698002	360
0	1429	249.519136578046	361
0	1430	249.519136578046	362
0	1431	250	361
0	1437	250.694407315224	362
0	1438	250.694407315224	363
0	1442	250.802870174612	364
0	1443	250.802870174612	365
0	1447	252.192077203917	366
0	1448	252.192077203917	367
0	1449	252.5	366
0	1455	253.668229414671	367
0	1456	253.668229414671	368
0	1457	255	367
0	1463	255.466265988581	368
0	1464	255.466265988581	369
0	1468	256.473952437771	370
0	1469	256.473952437771	371
0	1470	257.5	370
0	1476	257.686092165225	371
0	1477	257.686092165225	372
0	1481	258.604673110499	373
0	1482	258.604673110499	374
0	1486	259.324258613629	375
0	1487	259.324258613629	376
0	1491	259.619421405675	377
0	1492	259.619421405675	378
0	1493	260	377
0	1499	261.100381933662	378
0	1500	261.100381933662	379
0	1501	262.5	378
0	1507	263.123321455152	379
0	1508	263.123321455152	380
0	1512	263.54200418283	381
0	1513	263.54200418283	382
0	1517	264.158850680311	383
0	1518	264.158850680311	384
0	1519	265	383
0	1525	265.653306754368	384
0	1526	265.653306754368	385
0	1530	266.347587377007	386
0	1531	266.347587377007	387
0	1535	266.473546684477	388
0	1536	266.473546684477	389
0	1540	267.279340283824	390
0	1541	267.279340283824	391
0	1542	267.5	390
0	1548	268.428867507213	391
0	1549	268.428867507213	392
0	1553	269.009750137126	393
0	1554	269.009750137126	394
0	1555	270	393
0	1561	270.365121046384	394
0	1562	270.365121046384	395
0	1566	271.784684710846	396
0	1567	271.784684710846	397
0	1568	272.5	396
0	1574	272.686650492707	397
0	1575	272.686650492707	398
0	1579	272.816002529896	399
0	1580	272.816002529896	400
0	1584	273.559863784625	401
0	1585	273.559863784625	402
0	1589	274.21771992804	403
0	1590	274.21771992804	404
0	1591	275	403
0	1597	275.847229331334	404
0	1598	275.847229331334	405
0	1602	276.207425203082	406
0	1603	276.207425203082	407
0	1607	276.90278551843	408
0	1608	276.90278551843	409
0	1609	277.5	408
0	1615	278.213350815055	409
0	1616	278.213350815055	410
0	1617	280	409
0	1623	280.222400217473	410
0	1624	280.222400217473	411
0	1628	281.431895564929	412
0	1629	281.431895564929	413
0	1630	282.5	412
0	1636	282.836742752545	413
0	1637	282.836742752545	414
0	1641	284.459033669666	415
0	1642	284.459033669666	416
0	1643	285	415
0	1649	285.342705002	416
0	1650	285.342705002	417
0	1654	285.381443330214	418
0	1655	285.381443330214	419
0	1659	286.65678001654	420
0	1660	286.65678001654	421
0	1664	287.425821304758	422
0	1665	287.425821304758	423
0	1666	287.5	422
0	1672	289.350750001156	423
0	1673	289.350750001156	424
0	1674	290	423
0	1680	290.19972019242	424
0	1681	290.19972019242	425
0	1685	290.726770559385	426
0	1686	290.726770559385	427
0	1690	290.91925792814	428
0	1691	290.91925792814	429
0	1695	291.334734677401	430
0	1696	291.334734677401	431
0	1700	292.474542018707	432
0	1701	292.474542018707	433
0	1702	292.5	432
0	1708	292.59824289554	433
0	1709	292.59824289554	434
0	1713	293.197356961814	435
0	1714	293.197356961814	436
0	1718	294.518405865841	437
0	1719	294.518405865841	438
0	1720	295	437
0	1726	295.198155500617	438
0	1727	295.198155500617	439
0	1731	297.10654883212	440
0	1732	297.10654883212	441
0	1733	297.5	440
0	1739	298.18700041919	441
0	1740	298.18700041919	442
0	1744	299.336369391588	443
0	1745	299.336369391588	444
0	1749	299.480386152374	445
0	1750	299.480386152374	446
0	1751	300	445
0	1757	300.261234364852	446
0	1758	300.261234364852	447
0	1762	301.741561243327	448
0	1763	301.741561243327	449
0	1764	302.5	448
0	1770	303.586705839529	449
0	1771	303.586705839529	450
0	1772	305	449
0	1778	305.291236478523	450
0	1779	305.291236478523	451
0	1783	306.771067087268	452
0	1784	306.771067087268	453
0	1788	307.366065230164	454
0	1789	307.366065230164	455
0	1790	307.5	454
0	1796	308.565472230433	455
0	1797	308.565472230433	456
0	1798	310	455
0	1804	310.028793604174	456
0	1805	310.028793604174	457
0	1809	310.885106299836	458
0	1810	310.885106299836	459
0	1814	311.445377172828	460
0	1815	311.445377172828	461
0	1816	312.5	460
0	1822	313.385238364224	461
0	1823	313.385238364224	462
0	1827	314.936980963454	463
0	1828	314.936980963454	464
0	1829	315	463
0	1835	315.299266980099	464
0	1836	315.299266980099	465
0	1840	315.661910893845	466
0	1841	315.661910893845	467
0	1845	316.074697180465	468
0	1846	316.074697180465	469
0	1850	316.747595529026	470
0	1851	316.747595529026	471
0	1852	317.5	470
0	1858	317.946709336157	471
0	1859	317.946709336157	472
0	1863	318.396012425139	473
0	1864	318.396012425139	474
0	1868	319.0526925215	475
0	1869	319.0526925215	476
0	1873	319.672642014218	477
0	1874	319.672642014218	478
0	1875	320	477
0	1881	321.911182016376	478
0	1882	321.911182016376	479
0	1883	322.5	478
0	1889	322.845011886397	479
0	1890	322.845011886397	480
0	1894	323.61091717293	481
0	1895	323.61091717293	482
0	1899	324.819906747829	483
0	1900	324.819906747829	484
0	1901	325	483
0	1907	325.184952300116	484
0	1908	325.184952300116	485
0	1912	326.024821717444	486
0	1913	326.024821717444	487
0	1917	326.21420899477	488
0	1918	326.21420899477	489
0	1922	326.885495046782	490
0	1923	326.885495046782	491
0	1924	327.5	490
0	1930	328.730334052017	491
0	1931	328.730334052017	492
0	1935	329.358893791067	493
0	1936	329.358893791067	494
0	1940	329.758588940544	495
0	1941	329.758588940544	496
0	1942	330	495
0	1948	330.241442414721	496
0	1949	330.241442414721	497
0	1953	332.035359442471	498
0	1954	332.035359442471	499
0	1955	332.5	498
0	1961	332.972814815909	499
0	1962	332.972814815909	500
0	1966	333.768549774223	501
0	1967	333.768549774223	502
0	1968	335	501
0	1974	335.64837422626	502
0	1975	335.64837422626	503
0	1979	336.304088475962	504
0	1980	336.304088475962	505
0	1984	336.446722218733	506
0	1985	336.446722218733	507
0	1986	337.5	506
0	1992	338.176123092714	507
0	1993	338.176123092714	508
0	1997	338.957823431155	509
0	1998	338.957823431155	510
0	1999	340	509
0	2005	341.076377216991	510
0	2006	341.076377216991	511
0	2010	342.416839431038	512
0	2011	342.416839431038	513
0	2012	342.5	512
0	2018	342.971577556207	513
0	2019	342.971577556207	514
0	2023	343.561752915184	515
0	2024	343.561752915184	516
0	2028	343.862232008399	517
0	2029	343.862232008399	518
0	2030	345	517
0	2036	346.03362237747	518
0	2037	346.03362237747	519
0	2041	346.366368186534	520
0	2042	346.366368186534	521
0	2043	347.5	520
0	2049	347.719730705684	521
0	2050	347.719730705684	522
0	2054	347.995856869906	523
0	2055	347.995856869906	524
0	2059	348.012827452632	525
0	2060	348.012827452632	526
0	2064	348.019668298809	527
0	2065	348.019668298809	528
0	2069	349.211872029449	529
0	2070	349.211872029449	530
0	2071	350	529
0	2077	350.092456781701	530
0	2078	350.092456781701	531
0	2082	351.678116122259	532
0	2083	351.678116122259	533
0	2084	352.5	532
0	2090	353.112818947072	533
0	2091	353.112818947072	534
0	2095	354.500258483704	535
0	2096	354.500258483704	536
0	2100	354.911088772784	537
0	2101	354.911088772784	538
0	2102	355	537
0	2108	355.675278767711	538
0	2109	355.675278767711	539
0	2113	356.807647036564	540
0	2114	356.807647036564	541
0	2115	357.5	540
0	2121	357.983737424077	541
0	2122	357.983737424077	542
0	2126	359.435317625249	543
0	2127	359.435317625249	544
0	2128	360	543
0	2134	361.257482513466	544
0	2135	361.257482513466	545
0	2136	362.5	544
0	2142	362.729621987997	545
0	2143	362.729621987997	546
0	2147	364.355781454896	547
0	2148	364.355781454896	548
0	2149	365	547
0	2155	365.642755187956	548
0	2156	365.642755187956	549
0	2160	366.865918255687	550
0	2161	366.865918255687	551
0	2162	367.5	550
0	2168	368.012499981312	551
0	2169	368.012499981312	552
0	2173	368.230388254535	553
0	2174	368.230388254535	554
0	2178	368.907900626799	555
0	2179	368.907900626799	556
0	2183	369.301411173905	557
0	2184	369.301411173905	558
0	2185	370	557
0	2191	370.706306209133	558
0	2192	370.706306209133	559
0	2196	372.006515699319	560
0	2197	372.006515699319	561
0	2198	372.5	560
0	2204	373.37827171856	561
0	2205	373.37827171856	562
0	2209	374.243974884968	563
0	2210	374.243974884968	564
0	2211	375	563
0	2217	375.872531159077	564
0	2218	375.872531159077	565
0	2222	377.32403102913	566
0	2223	377.32403102913	567
0	2224	377.5	566
0	2230	378.609490244284	567
0	2231	378.609490244284	568
0	2232	380	567
0	2238	380.289473247178	568
0	2239	380.289473247178	569
0	2243	381.669717307255	570
0	2244	381.669717307255	571
0	2245	382.5	570
0	2251	382.634783743735	571
0	2252	382.634783743735	572
0	2256	383.641854924699	573
0	2257	383.641854924699	574
0	2261	384.559646792753	575
0	2262	384.559646792753	576
0	2266	384.932336864578	577
0	2267	384.932336864578	578
0	2268	385	577
0	2274	385.45376837338	578
0	2275	385.45376837338	579
0	2279	385.918758889958	580
0	2280	385.918758889958	581
0	2284	386.567327174595	582
0	2285	386.567327174595	583
0	2286	387.5	582
0	2292	387.519145965994	583
0	2293	387.519145965994	584
0	2297	389.648958822402	585
0	2298	389.648958822402	586
0	2299	390	585
0	2305	390.607316337423	586
0	2306	390.607316337423	587
0	2310	391.469617802611	588
0	2311	391.469617802611	589
0	2312	392.5	588
0	2318	392.542619554633	589
0	2319	392.542619554633	590
0	2323	393.946916106159	591
0	2324	393.946916106159	592
0	2325	395	591
0	2331	395.197931606781	592
0	2332	395.197931606781	593
0	2336	396.102423012985	594
0	2337	396.102423012985	595
0	2341	396.212120416383	596
0	2342	396.212120416383	597
0	2343	397.5	596
0	2349	397.562641868746	597
0	2350	397.562641868746	598
0	2354	398.758329210232	599
0	2355	398.758329210232	600
0	2359	399.148883669654	601
0	2360	399.148883669654	602
0	2364	399.418763449262	603
0	2365	399.418763449262	604
0	2366	400	603
0	2372	400.670054002195	604
0	2373	400.670054002195	605
0	2377	400.960778278201	606
0	2378	400.960778278201	607
0	2382	402.199410139573	608
0	2383	402.199410139573	609
0	2384	402.5	608
0	2390	404.024550083664	609
0	2391	404.024550083664	610
0	2395	404.483952737196	611
0	2396	404.483952737196	612
0	2397	405	611
0	2403	406.330524554338	612
0	2404	406.330524554338	613
0	2408	407.250356282217	614
0	2409	407.250356282217	615
0	2410	407.5	614
0	2416	408.343557521763	615
0	2417	408.343557521763	616
0	2421	409.59639519599	617
0	2422	409.59639519599	618
0	2423	410	617
0	2429	410.819450561418	618
0	2430	410.819450561418	619
0	2434	411.610296388867	620
0	2435	411.610296388867	621
0	2439	411.851849637736	622
0	2440	411.851849637736	623
0	2441	412.5	622
0	2447	413.932600050267	623
0	2448	413.932600050267	624
0	2452	414.739510719047	625
0	2453	414.739510719047	626
0	2454	415	625
0	2460	416.396350188519	626
0	2461	416.396350188519	627
0	2465	416.877051970732	628
0	2466	416.877051970732	629
0	2467	417.5	628
0	2473	418.207951848462	629
0	2474	418.207951848462	630
0	2478	418.610432157945	631
0	2479	418.610432157945	632
0	2480	420	631
0	2486	420.232189464761	632
0	2487	420.232189464761	633
0	2491	421.022863889832	634
0	2492	421.022863889832	635
0	2493	422.5	634
0	2499	422.788886781529	635
0	2500	422.788886781529	636
0	2504	424.103317704844	637
0	2505	424.103317704844	638
0	2509	424.621686722974	639
0	2510	424.621686722974	640
0	2511	425	639
0	2517	425.864898974874	640
0	2518	425.864898974874	641
0	2522	427.226127382068	642
0	2523	427.226127382068	643
0	2524	427.5	642
0	2530	429.340517037206	643
0	2531	429.340517037206	644
0	2532	430	643
0	2538	430.734075244949	644
0	2539	430.734075244949	645
0	2543	431.57360838512	646
0	2544	431.57360838512	647
0	2545	432.5	646
0	2551	432.972518341971	647
0	2552	432.972518341971	648
0	2556	434.154058220907	649
0	2557	434.154058220907	650
0	2558	435	649
0	2564	435.773941401902	650
0	2565	435.773941401902	651
0	2569	437.057775784969	652
0	2570	437.057775784969	653
0	2571	437.5	652
0	2577	438.513191658278	653
0	2578	438.513191658278	654
0	2579	440	653
0	2585	440.003068067509	654
0	2586	440.003068067509	655
0	2590	441.006971166421	656
0	2591	441.006971166421	657
0	2595	441.07075661161	658
0	2596	441.07075661161	659
0	2597	442.5	658
0	2603	442.599392602905	659
0	2604	442.599392602905	660
0	2608	442.844667718135	661
0	2609	442.844667718135	662
0	2613	443.968614623414	663
0	2614	443.968614623414	664
0	2615	445	663
0	2621	445.193702481891	664
0	2622	445.193702481891	665
0	2626	446.889813493028	666
0	2627	446.889813493028	667
0	2628	447.5	666
0	2634	448.27056697041	667
0	2635	448.27056697041	668
0	2639	449.009770329426	669
0	2640	449.009770329426	670
0	2644	449.224241899893	671
0	2645	449.224241899893	672
0	2649	449.700852028456	673
0	2650	449.700852028456	674
0	2651	450	673
0	2657	450.760817319394	674
0	2658	450.760817319394	675
0	2662	451.296051404063	676
0	2663	451.296051404063	677
0	2664	452.5	676
0	2670	452.599040945129	677
0	2671	452.599040945129	678
0	2675	452.639969917867	679
0	2676	452.639969917867	680
0	2680	453.755283928843	681
0	2681	453.755283928843	682
0	2685	454.856342332163	683
0	2686	454.856342332163	684
0	2687	455	683
0	2693	455.334920923289	684
0	2694	455.334920923289	685
0	2698	456.590485359058	686
0	2699	456.590485359058	687
0	2703	456.838459132136	688
0	2704	456.838459132136	689
0	2705	457.5	688
0	2711	457.60885634424	689
0	2712	457.60885634424	690
0	2716	458.068383653644	691
0	2717	458.068383653644	692
0	2721	459.802429358383	693
0	2722	459.802429358383	694
0	2723	460	693
0	2729	460.30752818011	694
0	2730	460.30752818011	695
0	2734	461.260604338973	696
0	2735	461.260604338973	697
0	2739	461.594139097269	698
0	2740	461.594139097269	699
0	2744	461.897513622242	700
0	2745	461.897513622242	701
0	2749	462.316569169579	702
0	2750	462.316569169579	703
0	2751	462.5	702
0	2757	463.283055454418	703
0	2758	463.283055454418	704
0	2762	464.946028935369	705
0	2763	464.946028935369	706
0	2764	465	705
0	2770	466.22149362921	706
0	2771	466.22149362921	707
0	2775	467.346864337534	708
0	2776	467.346864337534	709
0	2777	467.5	708
0	2783	468.486198158833	709
0	2784	468.486198158833	710
0	2788	468.604978263754	711
0	2789	468.604978263754	712
0	2793	469.747438871025	713
0	2794	469.747438871025	714
0	2795	470	713
0	2801	470.393144432054	714
0	2802	470.393144432054	715
0	2806	471.659371084986	716
0	2807	471.659371084986	717
0	2808	472.5	716
0	2814	473.109246014955	717
0	2815	473.109246014955	718
0	2819	474.246226289511	719
0	2820	474.246226289511	720
0	2821	475	719
0	2827	475.200227274085	720
0	2828	475.200227274085	721
0	2832	475.329654173582	722
0	2833	475.329654173582	723
0	2837	476.607308469654	724
0	2838	476.607308469654	725
0	2839	477.5	724
0	2845	477.670968455707	725
0	2846	477.670968455707	726
0	2850	479.247378526999	727
0	2851	479.247378526999	728
0	2852	480	727
0	2858	480.337757638743	728
0	2859	480.337757638743	729
0	2863	481.4282091733	730
0	2864	481.4282091733	731
0	2868	482.444454732439	732
0	2869	482.444454732439	733
0	2870	482.5	732
0	2876	482.799699485428	733
0	2877	482.799699485428	734
0	2881	483.521943469837	735
0	2882	483.521943469837	736
0	2886	484.205955292016	737
0	2887	484.205955292016	738
0	2888	485	737
0	2894	485.071680857411	738
0	2895	485.071680857411	739
0	2899	485.778731150514	740
0	2900	485.778731150514	741
0	2904	486.235331983807	742
0	2905	486.235331983807	743
0	2906	487.5	742
0	2912	487.610181259114	743
0	2913	487.610181259114	744
0	2917	488.876871912978	745
0	2918	488.876871912978	746
0	2919	490	745
0	2925	490.224091489252	746
0	2926	490.224091489252	747
0	2930	490.227761992829	748
0	2931	490.227761992829	749
0	2935	490.441713441336	750
0	2936	490.441713441336	751
0	2940	491.32337587957	752
0	2941	491.32337587957	753
0	2942	492.5	752