version 3
run k_MM1_lbqf-26-20221127-16:03:35-25264
attr configname k_MM1_lbqf
attr datetime 20221127-16:03:35
attr datetimef 20221127-160335
attr experiment k_MM1_lbqf
attr inifile omnetpp.ini
attr iterationvars "$time=2.5, $num=1, $0=47853, $1=24674, $2=96433"
attr iterationvarsd time=2.5/num=1/47853/24674/96433
attr iterationvarsf time=2.5,num=1,47853,24674,96433-
attr measurement "$time=2.5, $num=1, $0=47853, $1=24674, $2=96433"
attr network lbqfkMM1
attr processid 25264
attr repetition 2
attr replication #2
attr resultdir results
attr runnumber 26
attr seedset 26
itervar num 1
itervar time 2.5
config description "MM1 module k-times lbqf"
config network lbqfkMM1
config **.interArrivalTime "truncnormal(uniform(0.5s, 1.5s), uniform(0.25s, 0.75s))"
config **.serviceTime 2.5s
config **.c 1
config **.capacity 10000
config record-eventlog false
config **.scalar-recording true
config **.vector-recording true
config repeat 4
config seed-1-mt 47853
config seed-2-mt 24674
config seed-3-mt 96433
config output-vector-file k_MM1_lbqf-1-2.5-results/2.vec
config output-scalar-file k_MM1_lbqf-1-2.5-results/2.sca

vector 0 lbqfkMM1.mm1[0] queueLength:vector ETV
attr interpolationmode none
attr recordingmode vector
attr title "queue length"
vector 1 lbqfkMM1.mm1[0] util:vector ETV
attr interpolationmode none
attr recordingmode vector
attr title resources
0	5	10	1
0	9	10.603453166576	2
0	10	10.603453166576	3
0	11	12.5	2
0	17	12.630183034188	3
0	18	12.630183034188	4
0	22	14.030098846114	5
0	23	14.030098846114	6
0	24	15	5
0	30	15.089787754963	6
0	31	15.089787754963	7
0	35	16.050654566113	8
0	36	16.050654566113	9
0	40	16.89428162419	10
0	41	16.89428162419	11
0	45	17.296057755322	12
0	46	17.296057755322	13
0	47	17.5	12
0	53	17.768078367421	13
0	54	17.768078367421	14
0	58	19.966964181841	15
0	59	19.966964181841	16
0	60	20	15
0	66	20.867970799789	16
0	67	20.867970799789	17
0	71	21.685222712941	18
0	72	21.685222712941	19
0	73	22.5	18
0	79	23.126250806291	19
0	80	23.126250806291	20
0	84	23.92622705743	21
0	85	23.92622705743	22
0	86	25	21
0	92	25.432968476245	22
0	93	25.432968476245	23
0	97	25.650127870702	24
0	98	25.650127870702	25
0	102	26.521754538148	26
0	103	26.521754538148	27
0	104	27.5	26
0	110	27.960753698866	27
0	111	27.960753698866	28
0	115	28.58603578329	29
0	116	28.58603578329	30
0	120	29.616160252358	31
0	121	29.616160252358	32
0	122	30	31
0	128	31.05203485413	32
0	129	31.05203485413	33
0	133	32.482040489357	34
0	134	32.482040489357	35
0	135	32.5	34
0	141	32.727796895558	35
0	142	32.727796895558	36
0	146	34.787146264299	37
0	147	34.787146264299	38
0	148	35	37
0	154	36.284697986189	38
0	155	36.284697986189	39
0	156	37.5	38
0	162	38.678891270512	39
0	163	38.678891270512	40
0	167	39.635270290486	41
0	168	39.635270290486	42
0	169	40	41
0	175	40.70210920873	42
0	176	40.70210920873	43
0	177	42.5	42
0	183	43.119484719837	43
0	184	43.119484719837	44
0	188	43.620436393574	45
0	189	43.620436393574	46
0	193	44.024505791525	47
0	194	44.024505791525	48
0	198	44.876964857078	49
0	199	44.876964857078	50
0	200	45	49
0	206	45.601600652505	50
0	207	45.601600652505	51
0	208	47.5	50
0	214	47.64173693959	51
0	215	47.64173693959	52
0	219	48.568092544464	53
0	220	48.568092544464	54
0	224	49.827829560357	55
0	225	49.827829560357	56
0	226	50	55
0	232	50.272717193792	56
0	233	50.272717193792	57
0	237	50.376143481221	58
0	238	50.376143481221	59
0	242	51.288701295968	60
0	243	51.288701295968	61
0	247	51.829205730413	62
0	248	51.829205730413	63
0	249	52.5	62
0	255	52.970730815798	63
0	256	52.970730815798	64
0	260	54.247431108697	65
0	261	54.247431108697	66
0	262	55	65
0	268	55.468224078475	66
0	269	55.468224078475	67
0	273	56.142110007532	68
0	274	56.142110007532	69
0	275	57.5	68
0	281	57.624576592072	69
0	282	57.624576592072	70
0	286	58.057294962378	71
0	287	58.057294962378	72
0	291	59.638780571445	73
0	292	59.638780571445	74
0	293	60	73
0	299	60.120220829714	74
0	300	60.120220829714	75
0	304	60.787015536055	76
0	305	60.787015536055	77
0	309	61.488339498771	78
0	310	61.488339498771	79
0	311	62.5	78
0	317	62.755274074794	79
0	318	62.755274074794	80
0	322	63.098314987137	81
0	323	63.098314987137	82
0	327	64.618050629898	83
0	328	64.618050629898	84
0	329	65	83
0	335	65.293060146674	84
0	336	65.293060146674	85
0	340	66.479127899529	86
0	341	66.479127899529	87
0	345	67.235047494052	88
0	346	67.235047494052	89
0	347	67.5	88
0	353	67.745632564688	89
0	354	67.745632564688	90
0	358	68.314493998982	91
0	359	68.314493998982	92
0	363	68.682697644169	93
0	364	68.682697644169	94
0	368	69.887163138068	95
0	369	69.887163138068	96
0	370	70	95
0	376	71.146876183099	96
0	377	71.146876183099	97
0	378	72.5	96
0	384	72.921397251099	97
0	385	72.921397251099	98
0	386	75	97
0	392	75.421469788353	98
0	393	75.421469788353	99
0	397	76.213620778098	100
0	398	76.213620778098	101
0	402	77.376475716044	102
0	403	77.376475716044	103
0	404	77.5	102
0	410	78.652545850652	103
0	411	78.652545850652	104
0	415	79.218954684763	105
0	416	79.218954684763	106
0	420	79.71406760629	107
0	421	79.71406760629	108
0	422	80	107
0	428	80.767009689472	108
0	429	80.767009689472	109
0	433	81.525525160424	110
0	434	81.525525160424	111
0	438	82.232607703862	112
0	439	82.232607703862	113
0	440	82.5	112
0	446	82.699254234899	113
0	447	82.699254234899	114
0	451	84.288997585476	115
0	452	84.288997585476	116
0	453	85	115
0	459	86.095214379031	116
0	460	86.095214379031	117
0	464	87.455905027244	118
0	465	87.455905027244	119
0	466	87.5	118
0	472	88.327415653719	119
0	473	88.327415653719	120
0	477	89.833375911274	121
0	478	89.833375911274	122
0	479	90	121
0	485	90.403477771907	122
0	486	90.403477771907	123
0	490	90.787409111031	124
0	491	90.787409111031	125
0	492	92.5	124
0	498	92.720997843155	125
0	499	92.720997843155	126
0	503	94.124487595393	127
0	504	94.124487595393	128
0	505	95	127
0	511	95.341682422656	128
0	512	95.341682422656	129
0	516	96.660704762335	130
0	517	96.660704762335	131
0	518	97.5	130
0	524	97.695046333633	131
0	525	97.695046333633	132
0	529	98.490719392138	133
0	530	98.490719392138	134
0	534	98.851481791211	135
0	535	98.851481791211	136
0	536	100	135
0	542	100.365336192281	136
0	543	100.365336192281	137
0	547	102.078289117531	138
0	548	102.078289117531	139
0	549	102.5	138
0	555	102.614876047068	139
0	556	102.614876047068	140
0	560	103.373286575999	141
0	561	103.373286575999	142
0	565	104.605442390562	143
0	566	104.605442390562	144
0	570	104.957486454827	145
0	571	104.957486454827	146
0	572	105	145
0	578	105.863708672155	146
0	579	105.863708672155	147
0	583	107.348728120378	148
0	584	107.348728120378	149
0	585	107.5	148
0	591	108.541385790296	149
0	592	108.541385790296	150
0	596	109.016386048138	151
0	597	109.016386048138	152
0	598	110	151
0	604	110.414534882778	152
0	605	110.414534882778	153
0	609	111.795379155077	154
0	610	111.795379155077	155
0	611	112.5	154
0	617	113.218220469529	155
0	618	113.218220469529	156
0	622	113.57077207267	157
0	623	113.57077207267	158
0	627	114.346301546608	159
0	628	114.346301546608	160
0	629	115	159
0	635	115.362788219892	160
0	636	115.362788219892	161
0	640	116.864619593163	162
0	641	116.864619593163	163
0	642	117.5	162
0	648	117.985715033239	163
0	649	117.985715033239	164
0	653	119.41241126164	165
0	654	119.41241126164	166
0	655	120	165
0	661	120.473661374587	166
0	662	120.473661374587	167
0	666	121.502517149636	168
0	667	121.502517149636	169
0	671	122.486055717706	170
0	672	122.486055717706	171
0	673	122.5	170
0	679	124.189544480213	171
0	680	124.189544480213	172
0	684	124.850103991584	173
0	685	124.850103991584	174
0	686	125	173
0	692	126.834609554069	174
0	693	126.834609554069	175
0	697	127.159565316988	176
0	698	127.159565316988	177
0	699	127.5	176
0	705	128.661003559934	177
0	706	128.661003559934	178
0	707	130	177
0	713	130.374869180728	178
0	714	130.374869180728	179
0	718	131.869888891528	180
0	719	131.869888891528	181
0	720	132.5	180
0	726	132.81836512668	181
0	727	132.81836512668	182
0	731	133.240584398001	183
0	732	133.240584398001	184
0	736	133.460628259428	185
0	737	133.460628259428	186
0	741	133.570740040528	187
0	742	133.570740040528	188
0	746	134.743676771905	189
0	747	134.743676771905	190
0	748	135	189
0	754	136.120566048126	190
0	755	136.120566048126	191
0	759	136.891569302227	192
0	760	136.891569302227	193
0	764	137.499840379802	194
0	765	137.499840379802	195
0	766	137.5	194
0	772	138.654285328121	195
0	773	138.654285328121	196
0	777	139.100902514506	197
0	778	139.100902514506	198
0	782	139.582966738832	199
0	783	139.582966738832	200
0	784	140	199
0	790	140.277415584089	200
0	791	140.277415584089	201
0	795	141.365598495754	202
0	796	141.365598495754	203
0	800	142.076958308348	204
0	801	142.076958308348	205
0	802	142.5	204
0	808	142.918641479113	205
0	809	142.918641479113	206
0	810	145	205
0	816	145.108872717528	206
0	817	145.108872717528	207
0	821	146.595911179025	208
0	822	146.595911179025	209
0	823	147.5	208
0	829	147.653302477519	209
0	830	147.653302477519	210
0	834	148.557194461127	211
0	835	148.557194461127	212
0	839	149.427677946688	213
0	840	149.427677946688	214
0	841	150	213
0	847	150.935304678672	214
0	848	150.935304678672	215
0	849	152.5	214
0	855	153.010709323	215
0	856	153.010709323	216
0	860	154.911687799371	217
0	861	154.911687799371	218
0	862	155	217
0	868	155.194697763112	218
0	869	155.194697763112	219
0	873	157.005026038942	220
0	874	157.005026038942	221
0	875	157.5	220
0	881	158.198809368046	221
0	882	158.198809368046	222
0	886	159.363870104572	223
0	887	159.363870104572	224
0	888	160	223
0	894	160.236406522041	224
0	895	160.236406522041	225
0	899	161.578829275133	226
0	900	161.578829275133	227
0	901	162.5	226
0	907	162.795454041836	227
0	908	162.795454041836	228
0	912	163.660991581914	229
0	913	163.660991581914	230
0	917	164.141134463068	231
0	918	164.141134463068	232
0	919	165	231
0	925	166.1935446653	232
0	926	166.1935446653	233
0	930	166.747014187962	234
0	931	166.747014187962	235
0	932	167.5	234
0	938	169.839761537838	235
0	939	169.839761537838	236
0	940	170	235
0	946	170.800383176611	236
0	947	170.800383176611	237
0	951	172.143366992315	238
0	952	172.143366992315	239
0	953	172.5	238
0	959	172.661164776941	239
0	960	172.661164776941	240
0	964	174.287545747884	241
0	965	174.287545747884	242
0	966	175	241
0	972	175.200200606511	242
0	973	175.200200606511	243
0	977	175.917833197117	244
0	978	175.917833197117	245
0	982	176.785435631729	246
0	983	176.785435631729	247
0	987	177.23796831809	248
0	988	177.23796831809	249
0	989	177.5	248
0	995	178.242538960105	249
0	996	178.242538960105	250
0	1000	179.09014664687	251
0	1001	179.09014664687	252
0	1005	179.813547957808	253
0	1006	179.813547957808	254
0	1007	180	253
0	1013	180.240917373788	254
0	1014	180.240917373788	255
0	1018	180.991493213927	256
0	1019	180.991493213927	257
0	1023	181.78068180842	258
0	1024	181.78068180842	259
0	1025	182.5	258
0	1031	182.540402597714	259
0	1032	182.540402597714	260
0	1036	183.542149660649	261
0	1037	183.542149660649	262
0	1041	184.543949763128	263
0	1042	184.543949763128	264
0	1046	184.771580391592	265
0	1047	184.771580391592	266
0	1048	185	265
0	1054	185.805134963276	266
0	1055	185.805134963276	267
0	1059	186.778100468803	268
0	1060	186.778100468803	269
0	1064	187.222273219415	270
0	1065	187.222273219415	271
0	1066	187.5	270
0	1072	188.512624247155	271
0	1073	188.512624247155	272
0	1077	189.232029234923	273
0	1078	189.232029234923	274
0	1079	190	273
0	1085	190.19610593218	274
0	1086	190.19610593218	275
0	1090	190.841087764481	276
0	1091	190.841087764481	277
0	1095	191.550786167062	278
0	1096	191.550786167062	279
0	1097	192.5	278
0	1103	192.777790391486	279
0	1104	192.777790391486	280
0	1108	193.944947670638	281
0	1109	193.944947670638	282
0	1110	195	281
0	1116	195.279226271464	282
0	1117	195.279226271464	283
0	1121	196.61728784581	284
0	1122	196.61728784581	285
0	1126	197.287825250787	286
0	1127	197.287825250787	287
0	1128	197.5	286
0	1134	197.975793093006	287
0	1135	197.975793093006	288
0	1139	198.90613275892	289
0	1140	198.90613275892	290
0	1144	199.656439623523	291
0	1145	199.656439623523	292
0	1146	200	291
0	1152	200.738142102991	292
0	1153	200.738142102991	293
0	1157	202.200551548176	294
0	1158	202.200551548176	295
0	1159	202.5	294
0	1165	203.221858832086	295
0	1166	203.221858832086	296
0	1170	204.269744800287	297
0	1171	204.269744800287	298
0	1172	205	297
0	1178	205.787847086937	298
0	1179	205.787847086937	299
0	1183	207.156734742521	300
0	1184	207.156734742521	301
0	1185	207.5	300
0	1191	208.094352328384	301
0	1192	208.094352328384	302
0	1196	209.534771159914	303
0	1197	209.534771159914	304
0	1198	210	303
0	1204	210.863577502521	304
0	1205	210.863577502521	305
0	1209	211.701250141542	306
0	1210	211.701250141542	307
0	1211	212.5	306
0	1217	212.530247562182	307
0	1218	212.530247562182	308
0	1222	213.015217723324	309
0	1223	213.015217723324	310
0	1227	213.790212031353	311
0	1228	213.790212031353	312
0	1232	213.983132320325	313
0	1233	213.983132320325	314
0	1237	214.905749621275	315
0	1238	214.905749621275	316
0	1239	215	315
0	1245	215.784409240643	316
0	1246	215.784409240643	317
0	1250	215.882080051553	318
0	1251	215.882080051553	319
0	1255	216.024016165186	320
0	1256	216.024016165186	321
0	1260	216.664698015769	322
0	1261	216.664698015769	323
0	1265	217.271559188528	324
0	1266	217.271559188528	325
0	1267	217.5	324
0	1273	218.456824519428	325
0	1274	218.456824519428	326
0	1278	219.799473097593	327
0	1279	219.799473097593	328
0	1280	220	327
0	1286	221.73104357023	328
0	1287	221.73104357023	329
0	1288	222.5	328
0	1294	222.678628746428	329
0	1295	222.678628746428	330
0	1299	224.17843683002	331
0	1300	224.17843683002	332
0	1301	225	331
0	1307	225.698288958939	332
0	1308	225.698288958939	333
0	1309	227.5	332
0	1315	228.288634751762	333
0	1316	228.288634751762	334
0	1320	229.361676305074	335
0	1321	229.361676305074	336
0	1322	230	335
0	1328	230.847647311778	336
0	1329	230.847647311778	337
0	1333	230.910689927657	338
0	1334	230.910689927657	339
0	1338	232.158143557428	340
0	1339	232.158143557428	341
0	1340	232.5	340
0	1346	233.931235733682	341
0	1347	233.931235733682	342
0	1351	234.954625316431	343
0	1352	234.954625316431	344
0	1353	235	343
0	1359	235.43042186347	344
0	1360	235.43042186347	345
0	1364	236.61649623918	346
0	1365	236.61649623918	347
0	1366	237.5	346
0	1372	237.957116080577	347
0	1373	237.957116080577	348
0	1377	239.592027158532	349
0	1378	239.592027158532	350
0	1382	239.898718690479	351
0	1383	239.898718690479	352
0	1384	240	351
0	1390	241.003669401312	352
0	1391	241.003669401312	353
0	1395	241.708362441313	354
0	1396	241.708362441313	355
0	1397	242.5	354
0	1403	243.20042063091	355
0	1404	243.20042063091	356
0	1405	245	355
0	1411	245.071332485775	356
0	1412	245.071332485775	357
0	1416	246.596715931232	358
0	1417	246.596715931232	359
0	1418	247.5	358
0	1424	248.24622467641	359
0	1425	248.24622467641	360
0	1426	250	359
0	1432	250.473972466195	360
0	1433	250.473972466195	361
0	1437	251.8520877873	362
0	1438	251.8520877873	363
0	1442	252.205058971681	364
0	1443	252.205058971681	365
0	1444	252.5	364
0	1450	253.665345398863	365
0	1451	253.665345398863	366
0	1455	254.252079195737	367
0	1456	254.252079195737	368
0	1460	254.73955172202	369
0	1461	254.73955172202	370
0	1462	255	369
0	1468	256.314274984805	370
0	1469	256.314274984805	371
0	1473	257.093190477092	372
0	1474	257.093190477092	373
0	1475	257.5	372
0	1481	257.685725938457	373
0	1482	257.685725938457	374
0	1486	258.461251322236	375
0	1487	258.461251322236	376
0	1488	260	375
0	1494	260.223728526057	376
0	1495	260.223728526057	377
0	1499	261.778378390639	378
0	1500	261.778378390639	379
0	1504	262.139641114156	380
0	1505	262.139641114156	381
0	1506	262.5	380
0	1512	263.058000211468	381
0	1513	263.058000211468	382
0	1517	264.849530598076	383
0	1518	264.849530598076	384
0	1519	265	383
0	1525	265.603764404311	384
0	1526	265.603764404311	385
0	1530	267.208366742085	386
0	1531	267.208366742085	387
0	1532	267.5	386
0	1538	268.328627112579	387
0	1539	268.328627112579	388
0	1543	269.649709481992	389
0	1544	269.649709481992	390
0	1545	270	389
0	1551	270.446541004006	390
0	1552	270.446541004006	391
0	1556	271.378591729177	392
0	1557	271.378591729177	393
0	1558	272.5	392
0	1564	272.98230633711	393
0	1565	272.98230633711	394
0	1569	274.380371670341	395
0	1570	274.380371670341	396
0	1571	275	395
0	1577	275.053770451584	396
0	1578	275.053770451584	397
0	1582	276.071015502032	398
0	1583	276.071015502032	399
0	1587	276.832913918368	400
0	1588	276.832913918368	401
0	1589	277.5	400
0	1595	277.918621861791	401
0	1596	277.918621861791	402
0	1600	279.361799420526	403
0	1601	279.361799420526	404
0	1602	280	403
0	1608	282.005071852607	404
0	1609	282.005071852607	405
0	1610	282.5	404
0	1616	282.862510934441	405
0	1617	282.862510934441	406
0	1621	284.769267788103	407
0	1622	284.769267788103	408
0	1623	285	407
0	1629	286.011668447046	408
0	1630	286.011668447046	409
0	1631	287.5	408
0	1637	287.501381954373	409
0	1638	287.501381954373	410
0	1642	287.83249657386	411
0	1643	287.83249657386	412
0	1647	288.376772289925	413
0	1648	288.376772289925	414
0	1652	289.500056432161	415
0	1653	289.500056432161	416
0	1654	290	415
0	1660	291.528655030259	416
0	1661	291.528655030259	417
0	1665	291.810526109823	418
0	1666	291.810526109823	419
0	1667	292.5	418
0	1673	292.79913706972	419
0	1674	292.79913706972	420
0	1678	293.165634066164	421
0	1679	293.165634066164	422
0	1683	294.012845194366	423
0	1684	294.012845194366	424
0	1685	295	423
0	1691	295.465324625694	424
0	1692	295.465324625694	425
0	1696	296.666763795346	426
0	1697	296.666763795346	427
0	1698	297.5	426
0	1704	297.960808634548	427
0	1705	297.960808634548	428
0	1709	299.213517192574	429
0	1710	299.213517192574	430
0	1711	300	429
0	1717	301.105233337006	430
0	1718	301.105233337006	431
0	1719	302.5	430
0	1725	302.678092727687	431
0	1726	302.678092727687	432
0	1730	304.050134407975	433
0	1731	304.050134407975	434
0	1732	305	433
0	1738	305.245603831351	434
0	1739	305.245603831351	435
0	1743	306.625999101546	436
0	1744	306.625999101546	437
0	1745	307.5	436
0	1751	308.437801314639	437
0	1752	308.437801314639	438
0	1756	309.695047683126	439
0	1757	309.695047683126	440
0	1758	310	439
0	1764	310.91057472548	440
0	1765	310.91057472548	441
0	1766	312.5	440
0	1772	312.533563783244	441
0	1773	312.533563783244	442
0	1777	314.022345333728	443
0	1778	314.022345333728	444
0	1779	315	443
0	1785	315.307285299226	444
0	1786	315.307285299226	445
0	1790	315.869450908798	446
0	1791	315.869450908798	447
0	1795	316.585771533891	448
0	1796	316.585771533891	449
0	1797	317.5	448
0	1803	317.935893684194	449
0	1804	317.935893684194	450
0	1808	317.956371941489	451
0	1809	317.956371941489	452
0	1813	318.597477574895	453
0	1814	318.597477574895	454
0	1818	319.636150965471	455
0	1819	319.636150965471	456
0	1820	320	455
0	1826	320.809621044278	456
0	1827	320.809621044278	457
0	1831	321.851259354385	458
0	1832	321.851259354385	459
0	1833	322.5	458
0	1839	323.104036434089	459
0	1840	323.104036434089	460
0	1844	323.931520029466	461
0	1845	323.931520029466	462
0	1846	325	461
0	1852	325.310649047842	462
0	1853	325.310649047842	463
0	1857	326.56242623143	464
0	1858	326.56242623143	465
0	1862	326.881611378803	466
0	1863	326.881611378803	467
0	1864	327.5	466
0	1870	329.03036413228	467
0	1871	329.03036413228	468
0	1875	329.12621380967	469
0	1876	329.12621380967	470
0	1880	329.194555488953	471
0	1881	329.194555488953	472
0	1885	329.809501014291	473
0	1886	329.809501014291	474
0	1887	330	473
0	1893	330.659149615081	474
0	1894	330.659149615081	475
0	1895	332.5	474
0	1901	332.61654929308	475
0	1902	332.61654929308	476
0	1906	333.628465742094	477
0	1907	333.628465742094	478
0	1908	335	477
0	1914	336.071814982724	478
0	1915	336.071814982724	479
0	1916	337.5	478
0	1922	338.063584276281	479
0	1923	338.063584276281	480
0	1927	339.263145639097	481
0	1928	339.263145639097	482
0	1929	340	481
0	1935	340.700042647148	482
0	1936	340.700042647148	483
0	1940	342.06895824106	484
0	1941	342.06895824106	485
0	1942	342.5	484
0	1948	342.934397087699	485
0	1949	342.934397087699	486
0	1953	343.523714069297	487
0	1954	343.523714069297	488
0	1958	344.660080770258	489
0	1959	344.660080770258	490
0	1960	345	489
0	1966	345.760067210873	490
0	1967	345.760067210873	491
0	1971	347.026309783416	492
0	1972	347.026309783416	493
0	1976	347.353460591615	494
0	1977	347.353460591615	495
0	1978	347.5	494
0	1984	349.167817228672	495
0	1985	349.167817228672	496
0	1986	350	495
0	1992	350.54305415961	496
0	1993	350.54305415961	497
0	1997	351.671716998141	498
0	1998	351.671716998141	499
0	1999	352.5	498
0	2005	352.946806109494	499
0	2006	352.946806109494	500
0	2010	353.638884212252	501
0	2011	353.638884212252	502
0	2015	354.517745030314	503
0	2016	354.517745030314	504
0	2017	355	503
0	2023	355.390861528677	504
0	2024	355.390861528677	505
0	2028	356.409720811402	506
0	2029	356.409720811402	507
0	2030	357.5	506
0	2036	357.640233488282	507
0	2037	357.640233488282	508
0	2041	358.849476828858	509
0	2042	358.849476828858	510
0	2046	358.959202908921	511
0	2047	358.959202908921	512
0	2051	359.77786625952	513
0	2052	359.77786625952	514
0	2053	360	513
0	2059	360.328541195552	514
0	2060	360.328541195552	515
0	2061	362.5	514
0	2067	362.565142258842	515
0	2068	362.565142258842	516
0	2072	363.764246068095	517
0	2073	363.764246068095	518
0	2074	365	517
0	2080	365.141164880308	518
0	2081	365.141164880308	519
0	2085	366.538470571972	520
0	2086	366.538470571972	521
0	2090	367.260501406856	522
0	2091	367.260501406856	523
0	2095	367.310625149808	524
0	2096	367.310625149808	525
0	2097	367.5	524
0	2103	367.942107250809	525
0	2104	367.942107250809	526
0	2108	369.183781977564	527
0	2109	369.183781977564	528
0	2110	370	527
0	2116	370.506897537913	528
0	2117	370.506897537913	529
0	2121	371.413597640058	530
0	2122	371.413597640058	531
0	2126	372.182254149787	532
0	2127	372.182254149787	533
0	2128	372.5	532
0	2134	373.734547818994	533
0	2135	373.734547818994	534
0	2139	374.10097341024	535
0	2140	374.10097341024	536
0	2141	375	535
0	2147	375.268063177744	536
0	2148	375.268063177744	537
0	2152	376.697037444964	538
0	2153	376.697037444964	539
0	2157	376.947573759734	540
0	2158	376.947573759734	541
0	2159	377.5	540
0	2165	377.701221568404	541
0	2166	377.701221568404	542
0	2170	379.953459974247	543
0	2171	379.953459974247	544
0	2172	380	543
0	2178	381.915350863598	544
0	2179	381.915350863598	545
0	2183	381.980273159369	546
0	2184	381.980273159369	547
0	2188	382.403854655252	548
0	2189	382.403854655252	549
0	2190	382.5	548
0	2196	383.150060148089	549
0	2197	383.150060148089	550
0	2201	383.716685700935	551
0	2202	383.716685700935	552
0	2206	384.042348088293	553
0	2207	384.042348088293	554
0	2211	384.94590672782	555
0	2212	384.94590672782	556
0	2213	385	555
0	2219	386.416398397733	556
0	2220	386.416398397733	557
0	2224	387.041111436064	558
0	2225	387.041111436064	559
0	2226	387.5	558
0	2232	387.643463821427	559
0	2233	387.643463821427	560
0	2237	388.313729983956	561
0	2238	388.313729983956	562
0	2242	389.761826738022	563
0	2243	389.761826738022	564
0	2247	389.908230180212	565
0	2248	389.908230180212	566
0	2249	390	565
0	2255	392.084978657247	566
0	2256	392.084978657247	567
0	2260	392.323313007882	568
0	2261	392.323313007882	569
0	2262	392.5	568
0	2268	392.6138570587	569
0	2269	392.6138570587	570
0	2273	393.2898071919	571
0	2274	393.2898071919	572
0	2278	393.945504919723	573
0	2279	393.945504919723	574
0	2283	394.525755968823	575
0	2284	394.525755968823	576
0	2285	395	575
0	2291	395.301579093489	576
0	2292	395.301579093489	577
0	2296	396.045658351204	578
0	2297	396.045658351204	579
0	2301	397.199088749639	580
0	2302	397.199088749639	581
0	2303	397.5	580
0	2309	398.960804589204	581
0	2310	398.960804589204	582
0	2314	399.615345355774	583
0	2315	399.615345355774	584
0	2316	400	583
0	2322	400.568271162798	584
0	2323	400.568271162798	585
0	2327	401.979949006862	586
0	2328	401.979949006862	587
0	2329	402.5	586
0	2335	403.181205318318	587
0	2336	403.181205318318	588
0	2340	404.021231792679	589
0	2341	404.021231792679	590
0	2345	404.53621714784	591
0	2346	404.53621714784	592
0	2347	405	591
0	2353	405.649753484913	592
0	2354	405.649753484913	593
0	2358	405.79715562327	594
0	2359	405.79715562327	595
0	2363	406.377910000958	596
0	2364	406.377910000958	597
0	2368	406.890937680169	598
0	2369	406.890937680169	599
0	2370	407.5	598
0	2376	407.728099705993	599
0	2377	407.728099705993	600
0	2381	407.784840477288	601
0	2382	407.784840477288	602
0	2386	408.484103846883	603
0	2387	408.484103846883	604
0	2391	409.766106785019	605
0	2392	409.766106785019	606
0	2393	410	605
0	2399	411.514252543972	606
0	2400	411.514252543972	607
0	2401	412.5	606
0	2407	412.895750887367	607
0	2408	412.895750887367	608
0	2412	413.580675733042	609
0	2413	413.580675733042	610
0	2417	414.681870516501	611
0	2418	414.681870516501	612
0	2419	415	611
0	2425	415.57446049629	612
0	2426	415.57446049629	613
0	2430	417.231392725811	614
0	2431	417.231392725811	615
0	2432	417.5	614
0	2438	418.019653870276	615
0	2439	418.019653870276	616
0	2443	419.094083597519	617
0	2444	419.094083597519	618
0	2445	420	617
0	2451	420.270258252347	618
0	2452	420.270258252347	619
0	2456	421.65338415751	620
0	2457	421.65338415751	621
0	2458	422.5	620
0	2464	423.373738195696	621
0	2465	423.373738195696	622
0	2466	425	621
0	2472	425.160079190972	622
0	2473	425.160079190972	623
0	2477	426.446988858876	624
0	2478	426.446988858876	625
0	2479	427.5	624
0	2485	427.77388517137	625
0	2486	427.77388517137	626
0	2490	429.11021892452	627
0	2491	429.11021892452	628
0	2495	429.16001345542	629
0	2496	429.16001345542	630
0	2497	430	629
0	2503	430.206852943499	630
0	2504	430.206852943499	631
0	2508	430.78544243074	632
0	2509	430.78544243074	633
0	2513	431.314612005751	634
0	2514	431.314612005751	635
0	2518	431.686112370337	636
0	2519	431.686112370337	637
0	2520	432.5	636
0	2526	434.316085031579	637
0	2527	434.316085031579	638
0	2531	434.796947999373	639
0	2532	434.796947999373	640
0	2533	435	639
0	2539	435.13447202158	640
0	2540	435.13447202158	641
0	2544	436.625096045954	642
0	2545	436.625096045954	643
0	2549	437.073424677395	644
0	2550	437.073424677395	645
0	2551	437.5	644
0	2557	437.815459654115	645
0	2558	437.815459654115	646
0	2562	439.127934513624	647
0	2563	439.127934513624	648
0	2564	440	647
0	2570	441.016738693933	648
0	2571	441.016738693933	649
0	2575	442.322412630475	650
0	2576	442.322412630475	651
0	2577	442.5	650
0	2583	443.126848650752	651
0	2584	443.126848650752	652
0	2588	444.174630989489	653
0	2589	444.174630989489	654
0	2590	445	653
0	2596	446.527732298366	654
0	2597	446.527732298366	655
0	2598	447.5	654
0	2604	448.373494139865	655
0	2605	448.373494139865	656
0	2609	448.598744628374	657
0	2610	448.598744628374	658
0	2614	449.992255521152	659
0	2615	449.992255521152	660
0	2616	450	659
0	2622	450.284962554906	660
0	2623	450.284962554906	661
0	2627	450.907244905334	662
0	2628	450.907244905334	663
0	2629	452.5	662
0	2635	452.58848203032	663
0	2636	452.58848203032	664
0	2640	452.795635663797	665
0	2641	452.795635663797	666
0	2645	454.296220197862	667
0	2646	454.296220197862	668
0	2647	455	667
0	2653	456.811697743368	668
0	2654	456.811697743368	669
0	2655	457.5	668
0	2661	458.355894267019	669
0	2662	458.355894267019	670
0	2663	460	669
0	2669	460.20609835507	670
0	2670	460.20609835507	671
0	2674	461.488674017554	672
0	2675	461.488674017554	673
0	2679	461.950133158924	674
0	2680	461.950133158924	675
0	2684	462.374978990274	676
0	2685	462.374978990274	677
0	2686	462.5	676
0	2692	463.719784364928	677
0	2693	463.719784364928	678
0	2697	464.191347476121	679
0	2698	464.191347476121	680
0	2699	465	679
0	2705	465.702977949684	680
0	2706	465.702977949684	681
0	2710	466.17267772723	682
0	2711	466.17267772723	683
0	2715	466.604815264453	684
0	2716	466.604815264453	685
0	2717	467.5	684
0	2723	468.313241813031	685
0	2724	468.313241813031	686
0	2725	470	685
0	2731	470.738553263648	686
0	2732	470.738553263648	687
0	2733	472.5	686
0	2739	472.543724045252	687
0	2740	472.543724045252	688
0	2744	473.661939311352	689
0	2745	473.661939311352	690
0	2746	475	689
0	2752	475.238423186665	690
0	2753	475.238423186665	691
0	2757	476.131031845543	692
0	2758	476.131031845543	693
0	2762	476.880900186974	694
0	2763	476.880900186974	695
0	2764	477.5	694
0	2770	477.918256460187	695
0	2771	477.918256460187	696
0	2775	479.894302886428	697
0	2776	479.894302886428	698
0	2777	480	697
0	2783	481.736893183096	698
0	2784	481.736893183096	699
0	2785	482.5	698
0	2791	483.521218518691	699
0	2792	483.521218518691	700
0	2793	485	699
0	2799	485.378507386348	700
0	2800	485.378507386348	701
0	2804	486.123751108853	702
0	2805	486.123751108853	703
0	2806	487.5	702
0	2812	487.683866561357	703
0	2813	487.683866561357	704
0	2817	488.334861766492	705
0	2818	488.334861766492	706
0	2822	489.164362016799	707
0	2823	489.164362016799	708
0	2824	490	707
0	2830	490.465384763758	708
0	2831	490.465384763758	709
0	2835	490.760412165392	710
0	2836	490.760412165392	711
0	2840	491.665765378235	712
0	2841	491.665765378235	713
0	2842	492.5	712
0	2848	493.449528407688	713
0	2849	493.449528407688	714
0	2853	494.188519600011	715
0	2854	494.188519600011	716
0	2855	495	715
0	2861	495.462564235558	716
0	2862	495.462564235558	717
0	2866	496.037669462347	718
0	2867	496.037669462347	719
0	2871	496.779102451944	720
0	2872	496.779102451944	721
0	2873	497.5	720
0	2879	498.490204584038	721
0	2880	498.490204584038	722
0	2884	499.477298012304	723
0	2885	499.477298012304	724
0	2889	499.988516437319	725
0	2890	499.988516437319	726
0	2891	500	725
0	2897	500.536745157926	726
0	2898	500.536745157926	727
0	2902	501.960367998291	728
0	2903	501.960367998291	729
0	2907	502.177078461429	730
0	2908	502.177078461429	731
0	2909	502.5	730
0	2915	503.39317400744	731
0	2916	503.39317400744	732
0	2920	504.58079624735	733
0	2921	504.58079624735	734
0	2922	505	733
0	2928	505.733618091657	734
0	2929	505.733618091657	735
0	2933	506.589582681873	736
0	2934	506.589582681873	737
0	2938	506.598353272965	738
0	2939	506.598353272965	739
0	2940	507.5	738
0	2946	507.952584802141	739
0	2947	507.952584802141	740
0	2951	509.017903584247	741
0	2952	509.017903584247	742
0	2956	509.65767608354	743