version 3
run k_MM1_lbqf-27-20221127-16:03:35-25264
attr configname k_MM1_lbqf
attr datetime 20221127-16:03:35
attr datetimef 20221127-160335
attr experiment k_MM1_lbqf
attr inifile omnetpp.ini
attr iterationvars "$time=2.5, $num=1, $0=33434, $1=56673, $2=23567"
attr iterationvarsd time=2.5/num=1/33434/56673/23567
attr iterationvarsf time=2.5,num=1,33434,56673,23567-
attr measurement "$time=2.5, $num=1, $0=33434, $1=56673, $2=23567"
attr network lbqfkMM1
attr processid 25264
attr repetition 3
attr replication #3
attr resultdir results
attr runnumber 27
attr seedset 27
itervar num 1
itervar time 2.5
config description "MM1 module k-times lbqf"
config network lbqfkMM1
config **.interArrivalTime "truncnormal(uniform(0.5s, 1.5s), uniform(0.25s, 0.75s))"
config **.serviceTime 2.5s
config **.c 1
config **.capacity 10000
config record-eventlog false
config **.scalar-recording true
config **.vector-recording true
config repeat 4
config seed-1-mt 33434
config seed-2-mt 56673
config seed-3-mt 23567
config output-vector-file k_MM1_lbqf-1-2.5-results/3.vec
config output-scalar-file k_MM1_lbqf-1-2.5-results/3.sca

vector 0 lbqfkMM1.mm1[0] queueLength:vector ETV
attr interpolationmode none
attr recordingmode vector
attr title "queue length"
vector 1 lbqfkMM1.mm1[0] util:vector ETV
attr interpolationmode none
attr recordingmode vector
attr title resources
0	5	10	1
0	9	11.7004154667	2
0	10	11.7004154667	3
0	14	12.206886949394	4
0	15	12.206886949394	5
0	16	12.5	4
0	22	13.688808847247	5
0	23	13.688808847247	6
0	27	14.720607073028	7
0	28	14.720607073028	8
0	29	15	7
0	35	15.512385205683	8
0	36	15.512385205683	9
0	40	17.246317611433	10
0	41	17.246317611433	11
0	42	17.5	10
0	48	18.177867152199	11
0	49	18.177867152199	12
0	53	19.06750866037	13
0	54	19.06750866037	14
0	55	20	13
0	61	20.471367862081	14
0	62	20.471367862081	15
0	66	21.31873536508	16
0	67	21.31873536508	17
0	71	22.215446549997	18
0	72	22.215446549997	19
0	73	22.5	18
0	79	23.270357129462	19
0	80	23.270357129462	20
0	84	24.412679304209	21
0	85	24.412679304209	22
0	89	24.728520121617	23
0	90	24.728520121617	24
0	91	25	23
0	97	25.086961250509	24
0	98	25.086961250509	25
0	102	25.318032109482	26
0	103	25.318032109482	27
0	104	27.5	26
0	110	28.073641304999	27
0	111	28.073641304999	28
0	115	29.117639021176	29
0	116	29.117639021176	30
0	117	30	29
0	123	30.354044429234	30
0	124	30.354044429234	31
0	128	31.012565522108	32
0	129	31.012565522108	33
0	133	31.566909589465	34
0	134	31.566909589465	35
0	138	32.156294311361	36
0	139	32.156294311361	37
0	143	32.256196998995	38
0	144	32.256196998995	39
0	145	32.5	38
0	151	33.435947757388	39
0	152	33.435947757388	40
0	156	34.034991988674	41
0	157	34.034991988674	42
0	158	35	41
0	164	35.00021444904	42
0	165	35.00021444904	43
0	169	36.28892483288	44
0	170	36.28892483288	45
0	174	36.89045862846	46
0	175	36.89045862846	47
0	179	37.314524308945	48
0	180	37.314524308945	49
0	181	37.5	48
0	187	39.058875398959	49
0	188	39.058875398959	50
0	189	40	49
0	195	40.623733654887	50
0	196	40.623733654887	51
0	200	42.258288711459	52
0	201	42.258288711459	53
0	202	42.5	52
0	208	43.893694237718	53
0	209	43.893694237718	54
0	213	44.902730746077	55
0	214	44.902730746077	56
0	215	45	55
0	221	46.421432468837	56
0	222	46.421432468837	57
0	226	47.246793131501	58
0	227	47.246793131501	59
0	228	47.5	58
0	234	48.950400219607	59
0	235	48.950400219607	60
0	239	49.667662923784	61
0	240	49.667662923784	62
0	241	50	61
0	247	50.51565866494	62
0	248	50.51565866494	63
0	252	50.846236315431	64
0	253	50.846236315431	65
0	257	50.923009338906	66
0	258	50.923009338906	67
0	262	51.840603898615	68
0	263	51.840603898615	69
0	264	52.5	68
0	270	52.640059650761	69
0	271	52.640059650761	70
0	275	54.244920692861	71
0	276	54.244920692861	72
0	277	55	71
0	283	56.699792156302	72
0	284	56.699792156302	73
0	288	57.243608294556	74
0	289	57.243608294556	75
0	290	57.5	74
0	296	58.376079576099	75
0	297	58.376079576099	76
0	298	60	75
0	304	60.209525119939	76
0	305	60.209525119939	77
0	309	62.000816357572	78
0	310	62.000816357572	79
0	311	62.5	78
0	317	63.470250934536	79
0	318	63.470250934536	80
0	322	64.727224590232	81
0	323	64.727224590232	82
0	324	65	81
0	330	66.752049745149	82
0	331	66.752049745149	83
0	332	67.5	82
0	338	67.73014805473	83
0	339	67.73014805473	84
0	343	68.511700406725	85
0	344	68.511700406725	86
0	348	69.359831322627	87
0	349	69.359831322627	88
0	350	70	87
0	356	70.603987175049	88
0	357	70.603987175049	89
0	361	71.47248085037	90
0	362	71.47248085037	91
0	363	72.5	90
0	369	72.522146221402	91
0	370	72.522146221402	92
0	374	72.729166566713	93
0	375	72.729166566713	94
0	379	73.731304142333	95
0	380	73.731304142333	96
0	384	74.603790219888	97
0	385	74.603790219888	98
0	386	75	97
0	392	75.411971442525	98
0	393	75.411971442525	99
0	397	77.016685767355	100
0	398	77.016685767355	101
0	399	77.5	100
0	405	77.629215812408	101
0	406	77.629215812408	102
0	410	77.739277445143	103
0	411	77.739277445143	104
0	415	78.50651956536	105
0	416	78.50651956536	106
0	420	79.226281734807	107
0	421	79.226281734807	108
0	422	80	107
0	428	81.39427341374	108
0	429	81.39427341374	109
0	430	82.5	108
0	436	82.683282830502	109
0	437	82.683282830502	110
0	441	83.751687835061	111
0	442	83.751687835061	112
0	443	85	111
0	449	85.111478312448	112
0	450	85.111478312448	113
0	454	85.73071984405	114
0	455	85.73071984405	115
0	459	86.809553555521	116
0	460	86.809553555521	117
0	461	87.5	116
0	467	89.453235701449	117
0	468	89.453235701449	118
0	469	90	117
0	475	91.104199208555	118
0	476	91.104199208555	119
0	480	91.49903335767	120
0	481	91.49903335767	121
0	482	92.5	120
0	488	92.790841767925	121
0	489	92.790841767925	122
0	493	94.232852775795	123
0	494	94.232852775795	124
0	498	94.570506839568	125
0	499	94.570506839568	126
0	500	95	125
0	506	96.013936988998	126
0	507	96.013936988998	127
0	508	97.5	126
0	514	97.58160075061	127
0	515	97.58160075061	128
0	519	98.141659452217	129
0	520	98.141659452217	130
0	524	99.09762880411	131
0	525	99.09762880411	132
0	529	99.433605248861	133
0	530	99.433605248861	134
0	531	100	133
0	537	100.866165515272	134
0	538	100.866165515272	135
0	542	101.732759245771	136
0	543	101.732759245771	137
0	544	102.5	136
0	550	102.557904527774	137
0	551	102.557904527774	138
0	555	103.263989805855	139
0	556	103.263989805855	140
0	560	104.993445760817	141
0	561	104.993445760817	142
0	562	105	141
0	568	106.448719705172	142
0	569	106.448719705172	143
0	570	107.5	142
0	576	108.156901314573	143
0	577	108.156901314573	144
0	581	108.651116718161	145
0	582	108.651116718161	146
0	586	109.881832632819	147
0	587	109.881832632819	148
0	588	110	147
0	594	112.022505591631	148
0	595	112.022505591631	149
0	596	112.5	148
0	602	113.216071204416	149
0	603	113.216071204416	150
0	604	115	149
0	610	115.732336024044	150
0	611	115.732336024044	151
0	615	117.318851310414	152
0	616	117.318851310414	153
0	617	117.5	152
0	623	118.494820548725	153
0	624	118.494820548725	154
0	628	119.114729859958	155
0	629	119.114729859958	156
0	633	119.144246501283	157
0	634	119.144246501283	158
0	638	119.943631115395	159
0	639	119.943631115395	160
0	640	120	159
0	646	121.608048976106	160
0	647	121.608048976106	161
0	648	122.5	160
0	654	122.96449683204	161
0	655	122.96449683204	162
0	659	124.463275596741	163
0	660	124.463275596741	164
0	661	125	163
0	667	125.980733825452	164
0	668	125.980733825452	165
0	672	126.803058599499	166
0	673	126.803058599499	167
0	677	127.016565096622	168
0	678	127.016565096622	169
0	679	127.5	168
0	685	128.357453038733	169
0	686	128.357453038733	170
0	687	130	169
0	693	130.610718182189	170
0	694	130.610718182189	171
0	698	131.616229352806	172
0	699	131.616229352806	173
0	700	132.5	172
0	706	132.740068105589	173
0	707	132.740068105589	174
0	711	133.46197733049	175
0	712	133.46197733049	176
0	713	135	175
0	719	135.292763364297	176
0	720	135.292763364297	177
0	724	137.111537052343	178
0	725	137.111537052343	179
0	726	137.5	178
0	732	138.306916079121	179
0	733	138.306916079121	180
0	734	140	179
0	740	140.644388306992	180
0	741	140.644388306992	181
0	745	140.86846726296	182
0	746	140.86846726296	183
0	750	140.974590247875	184
0	751	140.974590247875	185
0	755	142.367802959133	186
0	756	142.367802959133	187
0	760	142.383104494908	188
0	761	142.383104494908	189
0	762	142.5	188
0	768	143.20779665954	189
0	769	143.20779665954	190
0	773	143.876521122535	191
0	774	143.876521122535	192
0	775	145	191
0	781	145.15627034952	192
0	782	145.15627034952	193
0	786	145.990900689334	194
0	787	145.990900689334	195
0	791	147.490661265543	196
0	792	147.490661265543	197
0	793	147.5	196
0	799	147.945617763402	197
0	800	147.945617763402	198
0	804	148.90030473687	199
0	805	148.90030473687	200
0	809	148.959675731515	201
0	810	148.959675731515	202
0	811	150	201
0	817	150.071070918635	202
0	818	150.071070918635	203
0	822	151.085732033333	204
0	823	151.085732033333	205
0	827	151.732897541144	206
0	828	151.732897541144	207
0	829	152.5	206
0	835	152.572511402634	207
0	836	152.572511402634	208
0	840	154.111905244509	209
0	841	154.111905244509	210
0	842	155	209
0	848	155.155916804817	210
0	849	155.155916804817	211
0	853	156.556267550607	212
0	854	156.556267550607	213
0	858	157.316881237876	214
0	859	157.316881237876	215
0	860	157.5	214
0	866	158.139387802041	215
0	867	158.139387802041	216
0	868	160	215
0	874	161.040241785937	216
0	875	161.040241785937	217
0	876	162.5	216
0	882	162.825476009702	217
0	883	162.825476009702	218
0	887	164.032381108748	219
0	888	164.032381108748	220
0	892	164.989555500537	221
0	893	164.989555500537	222
0	894	165	221
0	900	165.869322997334	222
0	901	165.869322997334	223
0	905	167.112218288053	224
0	906	167.112218288053	225
0	907	167.5	224
0	913	169.358361900586	225
0	914	169.358361900586	226
0	915	170	225
0	921	170.472686163568	226
0	922	170.472686163568	227
0	926	172.096323174766	228
0	927	172.096323174766	229
0	928	172.5	228
0	934	173.265786704972	229
0	935	173.265786704972	230
0	939	173.466856954596	231
0	940	173.466856954596	232
0	944	173.94154045888	233
0	945	173.94154045888	234
0	946	175	233
0	952	175.681798461174	234
0	953	175.681798461174	235
0	957	176.057657389523	236
0	958	176.057657389523	237
0	962	176.545091955986	238
0	963	176.545091955986	239
0	967	176.947702481832	240
0	968	176.947702481832	241
0	969	177.5	240
0	975	178.36114208555	241
0	976	178.36114208555	242
0	980	179.409600054319	243
0	981	179.409600054319	244
0	982	180	243
0	988	180.454913744144	244
0	989	180.454913744144	245
0	993	181.684593268634	246
0	994	181.684593268634	247
0	998	182.237461315256	248
0	999	182.237461315256	249
0	1000	182.5	248
0	1006	182.879069025774	249
0	1007	182.879069025774	250
0	1011	184.444494091223	251
0	1012	184.444494091223	252
0	1013	185	251
0	1019	185.415237671486	252
0	1020	185.415237671486	253
0	1024	185.567172034184	254
0	1025	185.567172034184	255
0	1029	186.806731745155	256
0	1030	186.806731745155	257
0	1031	187.5	256
0	1037	189.239619281753	257
0	1038	189.239619281753	258
0	1039	190	257
0	1045	190.43767553698	258
0	1046	190.43767553698	259
0	1050	191.59139897265	260
0	1051	191.59139897265	261
0	1055	192.257021672621	262
0	1056	192.257021672621	263
0	1057	192.5	262
0	1063	193.543044721572	263
0	1064	193.543044721572	264
0	1068	194.262284778616	265
0	1069	194.262284778616	266
0	1073	194.997998673125	267
0	1074	194.997998673125	268
0	1075	195	267
0	1081	195.079868569515	268
0	1082	195.079868569515	269
0	1086	196.647369933018	270
0	1087	196.647369933018	271
0	1088	197.5	270
0	1094	198.112434470869	271
0	1095	198.112434470869	272
0	1099	198.730684183368	273
0	1100	198.730684183368	274
0	1101	200	273
0	1107	200.010658295419	274
0	1108	200.010658295419	275
0	1112	201.12488989366	276
0	1113	201.12488989366	277
0	1117	202.448231744541	278
0	1118	202.448231744541	279
0	1119	202.5	278
0	1125	203.753926677507	279
0	1126	203.753926677507	280
0	1130	204.396660694921	281
0	1131	204.396660694921	282
0	1132	205	281
0	1138	205.047593549978	282
0	1139	205.047593549978	283
0	1143	205.427122456914	284
0	1144	205.427122456914	285
0	1148	206.552408209126	286
0	1149	206.552408209126	287
0	1153	207.115697505862	288
0	1154	207.115697505862	289
0	1155	207.5	288
0	1161	207.660268363702	289
0	1162	207.660268363702	290
0	1166	209.429613485595	291
0	1167	209.429613485595	292
0	1171	209.694938601511	293
0	1172	209.694938601511	294
0	1173	210	293
0	1179	210.110261222029	294
0	1180	210.110261222029	295
0	1184	211.046893177932	296
0	1185	211.046893177932	297
0	1189	212.118536273863	298
0	1190	212.118536273863	299
0	1191	212.5	298
0	1197	212.808915873814	299
0	1198	212.808915873814	300
0	1202	213.946655650647	301
0	1203	213.946655650647	302
0	1204	215	301
0	1210	215.706624118865	302
0	1211	215.706624118865	303
0	1215	216.970893286562	304
0	1216	216.970893286562	305
0	1217	217.5	304
0	1223	218.429746755515	305
0	1224	218.429746755515	306
0	1228	218.593748131495	307
0	1229	218.593748131495	308
0	1233	219.465740619282	309
0	1234	219.465740619282	310
0	1235	220	309
0	1241	220.439663329122	310
0	1242	220.439663329122	311
0	1246	221.488963749176	312
0	1247	221.488963749176	313
0	1251	222.377381368506	314
0	1252	222.377381368506	315
0	1253	222.5	314
0	1259	223.28692734	315
0	1260	223.28692734	316
0	1264	224.89930025137	317
0	1265	224.89930025137	318
0	1266	225	317
0	1272	226.823766273631	318
0	1273	226.823766273631	319
0	1277	227.026796621712	320
0	1278	227.026796621712	321
0	1279	227.5	320
0	1285	228.878796523465	321
0	1286	228.878796523465	322
0	1287	230	321
0	1293	230.321002901938	322
0	1294	230.321002901938	323
0	1298	231.336431698804	324
0	1299	231.336431698804	325
0	1300	232.5	324
0	1306	232.546041727712	325
0	1307	232.546041727712	326
0	1311	233.034976009271	327
0	1312	233.034976009271	328
0	1316	233.652179252841	329
0	1317	233.652179252841	330
0	1321	234.049149943935	331
0	1322	234.049149943935	332
0	1323	235	331
0	1329	235.395088168145	332
0	1330	235.395088168145	333
0	1334	235.889429247933	334
0	1335	235.889429247933	335
0	1339	236.369424678055	336
0	1340	236.369424678055	337
0	1341	237.5	336
0	1347	237.689593305934	337
0	1348	237.689593305934	338
0	1352	239.245414114927	339
0	1353	239.245414114927	340
0	1354	240	339
0	1360	240.291533317341	340
0	1361	240.291533317341	341
0	1365	241.475283719217	342
0	1366	241.475283719217	343
0	1367	242.5	342
0	1373	242.595448898916	343
0	1374	242.595448898916	344
0	1378	242.971697057551	345
0	1379	242.971697057551	346
0	1383	244.826531171611	347
0	1384	244.826531171611	348
0	1385	245	347
0	1391	245.417794352202	348
0	1392	245.417794352202	349
0	1396	247.160531051758	350
0	1397	247.160531051758	351
0	1398	247.5	350
0	1404	247.727909976478	351
0	1405	247.727909976478	352
0	1409	248.054417733616	353
0	1410	248.054417733616	354
0	1414	248.594342750735	355
0	1415	248.594342750735	356
0	1416	250	355
0	1422	250.03647718989	356
0	1423	250.03647718989	357
0	1427	250.979358285291	358
0	1428	250.979358285291	359
0	1432	251.865824361476	360
0	1433	251.865824361476	361
0	1434	252.5	360
0	1440	253.454496726194	361
0	1441	253.454496726194	362
0	1445	254.46147243674	363
0	1446	254.46147243674	364
0	1447	255	363
0	1453	255.305733430635	364
0	1454	255.305733430635	365
0	1458	255.888099150423	366
0	1459	255.888099150423	367
0	1463	256.8384634276	368
0	1464	256.8384634276	369
0	1468	257.216480720755	370
0	1469	257.216480720755	371
0	1470	257.5	370
0	1476	258.782026676927	371
0	1477	258.782026676927	372
0	1481	259.808865466072	373
0	1482	259.808865466072	374
0	1483	260	373
0	1489	260.433201619892	374
0	1490	260.433201619892	375
0	1494	261.490577920214	376
0	1495	261.490577920214	377
0	1499	262.099945146761	378
0	1500	262.099945146761	379
0	1501	262.5	378
0	1507	263.290181341707	379
0	1508	263.290181341707	380
0	1512	264.540168583994	381
0	1513	264.540168583994	382
0	1514	265	381
0	1520	265.683448783302	382
0	1521	265.683448783302	383
0	1525	266.350339846954	384
0	1526	266.350339846954	385
0	1530	267.053681475468	386
0	1531	267.053681475468	387
0	1532	267.5	386
0	1538	268.08857270572	387
0	1539	268.08857270572	388
0	1543	269.409167107821	389
0	1544	269.409167107821	390
0	1548	269.583105157878	391
0	1549	269.583105157878	392
0	1553	269.603543729745	393
0	1554	269.603543729745	394
0	1555	270	393
0	1561	270.348359393372	394
0	1562	270.348359393372	395
0	1566	271.176795300099	396
0	1567	271.176795300099	397
0	1571	272.478511037322	398
0	1572	272.478511037322	399
0	1573	272.5	398
0	1579	273.41130448055	399
0	1580	273.41130448055	400
0	1581	275	399
0	1587	275.613265760538	400
0	1588	275.613265760538	401
0	1592	276.54609324196	402
0	1593	276.54609324196	403
0	1597	277.256929947428	404
0	1598	277.256929947428	405
0	1599	277.5	404
0	1605	278.144296537964	405
0	1606	278.144296537964	406
0	1610	278.613498303102	407
0	1611	278.613498303102	408
0	1615	278.808640467875	409
0	1616	278.808640467875	410
0	1620	279.762365258135	411
0	1621	279.762365258135	412
0	1622	280	411
0	1628	280.187249163923	412
0	1629	280.187249163923	413
0	1633	280.386637582087	414
0	1634	280.386637582087	415
0	1638	281.067913533464	416
0	1639	281.067913533464	417
0	1643	282.402043692223	418
0	1644	282.402043692223	419
0	1645	282.5	418
0	1651	283.817052293747	419
0	1652	283.817052293747	420
0	1656	284.996952766355	421
0	1657	284.996952766355	422
0	1658	285	421
0	1664	285.557912690333	422
0	1665	285.557912690333	423
0	1669	287.320756770696	424
0	1670	287.320756770696	425
0	1671	287.5	424
0	1677	287.725959497096	425
0	1678	287.725959497096	426
0	1682	289.834654124106	427
0	1683	289.834654124106	428
0	1684	290	427
0	1690	290.501745633318	428
0	1691	290.501745633318	429
0	1695	292.193254673511	430
0	1696	292.193254673511	431
0	1697	292.5	430
0	1703	293.107568989965	431
0	1704	293.107568989965	432
0	1708	293.727925534976	433
0	1709	293.727925534976	434
0	1710	295	433
0	1716	295.095064658749	434
0	1717	295.095064658749	435
0	1721	296.627601755416	436
0	1722	296.627601755416	437
0	1726	297.280407692765	438
0	1727	297.280407692765	439
0	1728	297.5	438
0	1734	298.360905840014	439
0	1735	298.360905840014	440
0	1739	298.377430565499	441
0	1740	298.377430565499	442
0	1744	299.778189782851	443
0	1745	299.778189782851	444
0	1746	300	443
0	1752	300.562139366241	444
0	1753	300.562139366241	445
0	1757	302.102074899523	446
0	1758	302.102074899523	447
0	1759	302.5	446
0	1765	302.931450540118	447
0	1766	302.931450540118	448
0	1770	304.285544622081	449
0	1771	304.285544622081	450
0	1772	305	449
0	1778	305.527296675801	450
0	1779	305.527296675801	451
0	1780	307.5	450
0	1786	307.521156472427	451
0	1787	307.521156472427	452
0	1791	308.433704634268	453
0	1792	308.433704634268	454
0	1796	308.780270572975	455
0	1797	308.780270572975	456
0	1801	309.749275541539	457
0	1802	309.749275541539	458
0	1803	310	457
0	1809	310.720971322886	458
0	1810	310.720971322886	459
0	1814	311.329707904235	460
0	1815	311.329707904235	461
0	1816	312.5	460
0	1822	312.864333080733	461
0	1823	312.864333080733	462
0	1827	314.394808696466	463
0	1828	314.394808696466	464
0	1829	315	463
0	1835	315.534597731259	464
0	1836	315.534597731259	465
0	1840	316.581635053573	466
0	1841	316.581635053573	467
0	1845	317.022431234342	468
0	1846	317.022431234342	469
0	1847	317.5	468
0	1853	317.914250473544	469
0	1854	317.914250473544	470
0	1858	319.233070432178	471
0	1859	319.233070432178	472
0	1860	320	471
0	1866	320.154484081899	472
0	1867	320.154484081899	473
0	1871	320.554798800064	474
0	1872	320.554798800064	475
0	1876	322.428535082072	476
0	1877	322.428535082072	477
0	1878	322.5	476
0	1884	324.566508358585	477
0	1885	324.566508358585	478
0	1886	325	477
0	1892	326.026931159447	478
0	1893	326.026931159447	479
0	1897	326.844598941938	480
0	1898	326.844598941938	481
0	1899	327.5	480
0	1905	328.191964459666	481
0	1906	328.191964459666	482
0	1910	328.955584580968	483
0	1911	328.955584580968	484
0	1912	330	483
0	1918	330.199843034983	484
0	1919	330.199843034983	485
0	1923	331.080285701937	486
0	1924	331.080285701937	487
0	1928	332.157261625273	488
0	1929	332.157261625273	489
0	1930	332.5	488
0	1936	333.044990549802	489
0	1937	333.044990549802	490
0	1941	334.380729325993	491
0	1942	334.380729325993	492
0	1943	335	491
0	1949	335.359945924091	492
0	1950	335.359945924091	493
0	1954	337.362708880067	494
0	1955	337.362708880067	495
0	1956	337.5	494
0	1962	338.782313269128	495
0	1963	338.782313269128	496
0	1967	339.323597582867	497
0	1968	339.323597582867	498
0	1972	339.514227498234	499
0	1973	339.514227498234	500
0	1974	340	499
0	1980	340.615094370322	500
0	1981	340.615094370322	501
0	1985	341.052546024928	502
0	1986	341.052546024928	503
0	1990	341.815848715478	504
0	1991	341.815848715478	505
0	1992	342.5	504
0	1998	343.025517026059	505
0	1999	343.025517026059	506
0	2003	343.234902648971	507
0	2004	343.234902648971	508
0	2008	344.044063379868	509
0	2009	344.044063379868	510
0	2010	345	509
0	2016	345.120446285848	510
0	2017	345.120446285848	511
0	2021	346.55649183867	512
0	2022	346.55649183867	513
0	2023	347.5	512
0	2029	347.546134559608	513
0	2030	347.546134559608	514
0	2034	348.888290191355	515
0	2035	348.888290191355	516
0	2039	349.968129179833	517
0	2040	349.968129179833	518
0	2041	350	517
0	2047	350.241979990917	518
0	2048	350.241979990917	519
0	2052	351.73904509421	520
0	2053	351.73904509421	521
0	2054	352.5	520
0	2060	353.179248559324	521
0	2061	353.179248559324	522
0	2065	354.141783415368	523
0	2066	354.141783415368	524
0	2067	355	523
0	2073	355.923529395519	524
0	2074	355.923529395519	525
0	2075	357.5	524
0	2081	357.631617558926	525
0	2082	357.631617558926	526
0	2086	358.406581832654	527
0	2087	358.406581832654	528
0	2091	359.365371610638	529
0	2092	359.365371610638	530
0	2093	360	529
0	2099	360.178078396648	530
0	2100	360.178078396648	531
0	2104	361.044422902528	532
0	2105	361.044422902528	533
0	2109	361.580063582417	534
0	2110	361.580063582417	535
0	2111	362.5	534
0	2117	363.055440243801	535
0	2118	363.055440243801	536
0	2122	364.874165863156	537
0	2123	364.874165863156	538
0	2124	365	537
0	2130	367.056683363613	538
0	2131	367.056683363613	539
0	2132	367.5	538
0	2138	368.121219017595	539
0	2139	368.121219017595	540
0	2143	369.086340421835	541
0	2144	369.086340421835	542
0	2148	369.29937404003	543
0	2149	369.29937404003	544
0	2153	369.871827220682	545
0	2154	369.871827220682	546
0	2155	370	545
0	2161	371.005279819201	546
0	2162	371.005279819201	547
0	2163	372.5	546
0	2169	372.911564738243	547
0	2170	372.911564738243	548
0	2174	373.710411416373	549
0	2175	373.710411416373	550
0	2179	374.985311287054	551
0	2180	374.985311287054	552
0	2181	375	551
0	2187	376.460011824352	552
0	2188	376.460011824352	553
0	2189	377.5	552
0	2195	377.709277417721	553
0	2196	377.709277417721	554
0	2200	379.404684973586	555
0	2201	379.404684973586	556
0	2205	379.718292718806	557
0	2206	379.718292718806	558
0	2207	380	557
0	2213	380.155398067991	558
0	2214	380.155398067991	559
0	2218	380.882475759896	560
0	2219	380.882475759896	561
0	2223	381.730192506641	562
0	2224	381.730192506641	563
0	2225	382.5	562
0	2231	383.394563226781	563
0	2232	383.394563226781	564
0	2236	384.226017546676	565
0	2237	384.226017546676	566
0	2241	384.734928320233	567
0	2242	384.734928320233	568
0	2243	385	567
0	2249	385.654520422842	568
0	2250	385.654520422842	569
0	2254	386.993264017282	570
0	2255	386.993264017282	571
0	2256	387.5	570
0	2262	388.006595578049	571
0	2263	388.006595578049	572
0	2267	389.549790896073	573
0	2268	389.549790896073	574
0	2269	390	573
0	2275	390.862446727441	574
0	2276	390.862446727441	575
0	2280	391.490533614087	576
0	2281	391.490533614087	577
0	2282	392.5	576
0	2288	392.609174145361	577
0	2289	392.609174145361	578
0	2293	392.819885920655	579
0	2294	392.819885920655	580
0	2298	394.608293828354	581
0	2299	394.608293828354	582
0	2300	395	581
0	2306	395.832695574437	582
0	2307	395.832695574437	583
0	2311	396.792764279682	584
0	2312	396.792764279682	585
0	2313	397.5	584
0	2319	397.859665508361	585
0	2320	397.859665508361	586
0	2324	398.826763546527	587
0	2325	398.826763546527	588
0	2326	400	587
0	2332	400.031204888939	588
0	2333	400.031204888939	589
0	2337	401.337129505349	590
0	2338	401.337129505349	591
0	2342	401.89556141407	592
0	2343	401.89556141407	593
0	2344	402.5	592
0	2350	402.933426150648	593
0	2351	402.933426150648	594
0	2352	405	593
0	2358	405.712975559603	594
0	2359	405.712975559603	595
0	2363	406.74724906212	596
0	2364	406.74724906212	597
0	2365	407.5	596
0	2371	408.226782512783	597
0	2372	408.226782512783	598
0	2376	409.691639537904	599
0	2377	409.691639537904	600
0	2378	410	599
0	2384	411.663625851469	600
0	2385	411.663625851469	601
0	2389	412.11543102201	602
0	2390	412.11543102201	603
0	2391	412.5	602
0	2397	412.67409099921	603
0	2398	412.67409099921	604
0	2402	413.172968844027	605
0	2403	413.172968844027	606
0	2407	414.196380722294	607
0	2408	414.196380722294	608
0	2409	415	607
0	2415	415.08563410946	608
0	2416	415.08563410946	609
0	2420	416.380728733985	610
0	2421	416.380728733985	611
0	2422	417.5	610
0	2428	417.780582271009	611
0	2429	417.780582271009	612
0	2433	418.973567893596	613
0	2434	418.973567893596	614
0	2435	420	613
0	2441	420.786750067732	614
0	2442	420.786750067732	615
0	2443	422.5	614
0	2449	422.844591706801	615
0	2450	422.844591706801	616
0	2454	423.367860105593	617
0	2455	423.367860105593	618
0	2459	424.813518890697	619
0	2460	424.813518890697	620
0	2461	425	619
0	2467	425.061851979865	620
0	2468	425.061851979865	621
0	2472	426.416747126574	622
0	2473	426.416747126574	623
0	2477	427.039104095842	624
0	2478	427.039104095842	625
0	2482	427.377232139234	626
0	2483	427.377232139234	627
0	2484	427.5	626
0	2490	429.098199188561	627
0	2491	429.098199188561	628
0	2495	429.55787097744	629
0	2496	429.55787097744	630
0	2497	430	629
0	2503	430.85821773882	630
0	2504	430.85821773882	631
0	2508	431.994167890088	632
0	2509	431.994167890088	633
0	2510	432.5	632
0	2516	433.052594214491	633
0	2517	433.052594214491	634
0	2518	435	633
0	2524	435.710341412266	634
0	2525	435.710341412266	635
0	2529	436.978852561387	636
0	2530	436.978852561387	637
0	2531	437.5	636
0	2537	438.642477816266	637
0	2538	438.642477816266	638
0	2542	438.985712009635	639
0	2543	438.985712009635	640
0	2544	440	639
0	2550	441.089492917857	640
0	2551	441.089492917857	641
0	2555	442.185104067514	642
0	2556	442.185104067514	643
0	2557	442.5	642
0	2563	442.910043932461	643
0	2564	442.910043932461	644
0	2565	445	643
0	2571	445.035795760185	644
0	2572	445.035795760185	645
0	2576	446.431744726754	646
0	2577	446.431744726754	647
0	2581	447.139140498255	648
0	2582	447.139140498255	649
0	2586	447.420895858584	650
0	2587	447.420895858584	651
0	2588	447.5	650
0	2594	448.374939531486	651
0	2595	448.374939531486	652
0	2599	449.003259011845	653
0	2600	449.003259011845	654
0	2604	449.344115658028	655
0	2605	449.344115658028	656
0	2609	449.841268188208	657
0	2610	449.841268188208	658
0	2611	450	657
0	2617	450.417847317998	658
0	2618	450.417847317998	659
0	2622	452.081739144944	660
0	2623	452.081739144944	661
0	2627	452.354537439326	662
0	2628	452.354537439326	663
0	2629	452.5	662
0	2635	453.041346390038	663
0	2636	453.041346390038	664
0	2640	454.47641738155	665
0	2641	454.47641738155	666
0	2642	455	665
0	2648	455.504411155413	666
0	2649	455.504411155413	667
0	2653	455.978561124128	668
0	2654	455.978561124128	669
0	2658	456.126381049259	670
0	2659	456.126381049259	671
0	2663	456.769248427079	672
0	2664	456.769248427079	673
0	2668	456.95151564039	674
0	2669	456.95151564039	675
0	2670	457.5	674
0	2676	458.378898905713	675
0	2677	458.378898905713	676
0	2681	459.622695650975	677
0	2682	459.622695650975	678
0	2683	460	677
0	2689	460.075234386248	678
0	2690	460.075234386248	679
0	2694	460.757833041076	680
0	2695	460.757833041076	681
0	2699	462.031309878781	682
0	2700	462.031309878781	683
0	2701	462.5	682
0	2707	462.962272141112	683
0	2708	462.962272141112	684
0	2712	463.414139256583	685
0	2713	463.414139256583	686
0	2714	465	685
0	2720	466.141934713807	686
0	2721	466.141934713807	687
0	2725	466.24204051157	688
0	2726	466.24204051157	689
0	2727	467.5	688
0	2733	467.55998295221	689
0	2734	467.55998295221	690
0	2738	469.207494804964	691
0	2739	469.207494804964	692
0	2743	469.901655942733	693
0	2744	469.901655942733	694
0	2745	470	693
0	2751	470.8033786597	694
0	2752	470.8033786597	695
0	2756	471.661891670555	696
0	2757	471.661891670555	697
0	2761	471.782991017296	698
0	2762	471.782991017296	699
0	2763	472.5	698
0	2769	472.964251681089	699
0	2770	472.964251681089	700
0	2774	474.335510078953	701
0	2775	474.335510078953	702
0	2776	475	701
0	2782	475.011360575284	702
0	2783	475.011360575284	703
0	2787	476.025647826891	704
0	2788	476.025647826891	705
0	2789	477.5	704
0	2795	478.144000907143	705
0	2796	478.144000907143	706
0	2800	479.072577147012	707
0	2801	479.072577147012	708
0	2805	479.268287737898	709
0	2806	479.268287737898	710
0	2807	480	709
0	2813	480.078127386469	710
0	2814	480.078127386469	711
0	2818	480.287559794027	712
0	2819	480.287559794027	713
0	2823	481.603065122071	714
0	2824	481.603065122071	715
0	2825	482.5	714
0	2831	482.900775095626	715
0	2832	482.900775095626	716
0	2836	483.078175003336	717
0	2837	483.078175003336	718
0	2841	483.168144715921	719
0	2842	483.168144715921	720
0	2846	484.159078883388	721
0	2847	484.159078883388	722
0	2851	484.986181417461	723
0	2852	484.986181417461	724
0	2853	485	723
0	2859	485.316588803495	724
0	2860	485.316588803495	725
0	2864	487.088159801493	726
0	2865	487.088159801493	727
0	2866	487.5	726
0	2872	488.684421303096	727
0	2873	488.684421303096	728
0	2877	489.302927776533	729
0	2878	489.302927776533	730
0	2879	490	729
0	2885	490.465215937914	730
0	2886	490.465215937914	731
0	2890	490.85380906176	732
0	2891	490.85380906176	733
0	2895	491.659755638728	734
0	2896	491.659755638728	735
0	2897	492.5	734
0	2903	493.034451131801	735
0	2904	493.034451131801	736
0	2908	493.433887732859	737
0	2909	493.433887732859	738
0	2910	495	737
0	2916	495.208767284714	738
0	2917	495.208767284714	739
0	2921	496.017260800264	740
0	2922	496.017260800264	741
0	2926	496.440173143227	742
0	2927	496.440173143227	743
0	2928	497.5	742
0	2934	497.958613173333	743
0	2935	497.958613173333	744
0	2939	499.041113522437	745
0	2940	499.041113522437	746
0	2941	500	745
0	2947	500.531207930318	746
0	2948	500.531207930318	747