version 3
run k_MM1_rand-24-20221127-16:03:21-5740
attr configname k_MM1_rand
attr datetime 20221127-16:03:21
attr datetimef 20221127-160321
attr experiment k_MM1_rand
attr inifile omnetpp.ini
attr iterationvars "$time=2.5, $num=1, $0=53542, $1=75335, $2=34542"
attr iterationvarsd time=2.5/num=1/53542/75335/34542
attr iterationvarsf time=2.5,num=1,53542,75335,34542-
attr measurement "$time=2.5, $num=1, $0=53542, $1=75335, $2=34542"
attr network randkMM1
attr processid 5740
attr repetition 0
attr replication #0
attr resultdir results
attr runnumber 24
attr seedset 24
itervar num 1
itervar time 2.5
config description "MM1 module k-times random"
config network randkMM1
config **.source.interArrivalTime "truncnormal(0.5s, 1.5s)"
config **.serviceTime 2.5s
config **.c 1
config **.capacity 10000
config record-eventlog false
config **.scalar-recording true
config **.vector-recording true
config repeat 4
config seed-1-mt 53542
config seed-2-mt 75335
config seed-3-mt 34542
config output-vector-file k_MM1_rand-1-2.5-results/0.vec
config output-scalar-file k_MM1_rand-1-2.5-results/0.sca

vector 0 randkMM1.mm1[0] queueLength:vector ETV
attr interpolationmode none
attr recordingmode vector
attr title "queue length"
vector 1 randkMM1.mm1[0] util:vector ETV
attr interpolationmode none
attr recordingmode vector
attr title resources
0	5	10	1
0	6	12.5	0
0	12	12.698968927849	1
0	13	12.698968927849	2
0	17	14.251170118066	3
0	18	14.251170118066	4
0	19	15	3
0	25	15.321000419325	4
0	26	15.321000419325	5
0	30	15.695725188997	6
0	31	15.695725188997	7
0	32	17.5	6
0	38	17.503685496394	7
0	39	17.503685496394	8
0	40	20	7
0	46	20.623401839319	8
0	47	20.623401839319	9
0	51	20.993510061786	10
0	52	20.993510061786	11
0	56	21.318189089076	12
0	57	21.318189089076	13
0	58	22.5	12
0	64	23.622694500323	13
0	65	23.622694500323	14
0	66	25	13
0	72	27.118317462426	14
0	73	27.118317462426	15
0	74	27.5	14
0	77	30	13
0	83	30.76223232755	14
0	84	30.76223232755	15
0	85	32.5	14
0	91	33.321478082457	15
0	92	33.321478082457	16
0	93	35	15
0	99	35.72190135331	16
0	100	35.72190135331	17
0	104	37.05725606083	18
0	105	37.05725606083	19
0	106	37.5	18
0	112	38.21190444352	19
0	113	38.21190444352	20
0	114	40	19
0	120	41.384856478592	20
0	121	41.384856478592	21
0	122	42.5	20
0	128	43.561430919329	21
0	129	43.561430919329	22
0	133	44.228759812245	23
0	134	44.228759812245	24
0	138	44.276243235448	25
0	139	44.276243235448	26
0	143	44.917473339436	27
0	144	44.917473339436	28
0	145	45	27
0	151	45.246750272732	28
0	152	45.246750272732	29
0	156	45.4125899537	30
0	157	45.4125899537	31
0	161	47.496940835324	32
0	162	47.496940835324	33
0	163	47.5	32
0	169	48.789650755692	33
0	170	48.789650755692	34
0	171	50	33
0	177	52.172811843504	34
0	178	52.172811843504	35
0	179	52.5	34
0	185	52.763475936389	35
0	186	52.763475936389	36
0	187	55	35
0	193	57.261443622242	36
0	194	57.261443622242	37
0	195	57.5	36
0	201	58.041612503038	37
0	202	58.041612503038	38
0	206	58.356866579854	39
0	207	58.356866579854	40
0	211	59.225430183313	41
0	212	59.225430183313	42
0	213	60	41
0	219	60.711250146494	42
0	220	60.711250146494	43
0	224	60.785125450027	44
0	225	60.785125450027	45
0	226	62.5	44
0	232	64.244139139951	45
0	233	64.244139139951	46
0	237	64.672639949151	47
0	238	64.672639949151	48
0	239	65	47
0	245	66.042226868602	48
0	246	66.042226868602	49
0	247	67.5	48
0	253	68.543706789972	49
0	254	68.543706789972	50
0	255	70	49
0	261	71.100071857199	50
0	262	71.100071857199	51
0	266	71.986543786872	52
0	267	71.986543786872	53
0	268	72.5	52
0	271	75	51
0	277	76.038569648199	52
0	278	76.038569648199	53
0	282	77.12898513594	54
0	283	77.12898513594	55
0	284	77.5	54
0	290	78.919827433974	55
0	291	78.919827433974	56
0	292	80	55
0	298	81.108829535723	56
0	299	81.108829535723	57
0	303	81.914435975357	58
0	304	81.914435975357	59
0	308	81.998237944675	60
0	309	81.998237944675	61
0	310	82.5	60
0	316	82.724251143379	61
0	317	82.724251143379	62
0	318	85	61
0	324	85.821797847444	62
0	325	85.821797847444	63
0	329	86.01033257355	64
0	330	86.01033257355	65
0	334	86.976391682176	66
0	335	86.976391682176	67
0	336	87.5	66
0	342	88.40651757519	67
0	343	88.40651757519	68
0	344	90	67
0	350	90.311783778998	68
0	351	90.311783778998	69
0	355	90.970136439421	70
0	356	90.970136439421	71
0	360	92.106968960168	72
0	361	92.106968960168	73
0	362	92.5	72
0	368	94.446438507064	73
0	369	94.446438507064	74
0	373	94.815351742082	75
0	374	94.815351742082	76
0	375	95	75
0	381	95.203763929995	76
0	382	95.203763929995	77
0	386	96.894905006607	78
0	387	96.894905006607	79
0	388	97.5	78
0	394	98.961787077745	79
0	395	98.961787077745	80
0	396	100	79
0	402	101.60765963969	80
0	403	101.60765963969	81
0	407	102.334068364009	82
0	408	102.334068364009	83
0	409	102.5	82
0	415	103.065311289585	83
0	416	103.065311289585	84
0	420	103.218775398197	85
0	421	103.218775398197	86
0	422	105	85
0	428	105.267389276987	86
0	429	105.267389276987	87
0	433	105.983087335273	88
0	434	105.983087335273	89
0	438	106.524116909534	90
0	439	106.524116909534	91
0	443	106.888844166854	92
0	444	106.888844166854	93
0	448	106.96888059578	94
0	449	106.96888059578	95
0	450	107.5	94
0	456	109.366847267741	95
0	457	109.366847267741	96
0	458	110	95
0	464	112.328501026082	96
0	465	112.328501026082	97
0	466	112.5	96
0	472	114.800562307436	97
0	473	114.800562307436	98
0	474	115	97
0	480	117.406552434782	98
0	481	117.406552434782	99
0	482	117.5	98
0	488	118.3894424482	99
0	489	118.3894424482	100
0	493	118.764131210215	101
0	494	118.764131210215	102
0	495	120	101
0	501	120.915150241024	102
0	502	120.915150241024	103
0	503	122.5	102
0	509	122.939991779015	103
0	510	122.939991779015	104
0	514	122.994493358748	105
0	515	122.994493358748	106
0	519	124.452549803001	107
0	520	124.452549803001	108
0	524	124.845086106174	109
0	525	124.845086106174	110
0	526	125	109
0	532	125.788747874387	110
0	533	125.788747874387	111
0	537	126.116783936247	112
0	538	126.116783936247	113
0	542	127.438227765561	114
0	543	127.438227765561	115
0	544	127.5	114
0	550	128.73711367822	115
0	551	128.73711367822	116
0	552	130	115
0	558	130.161549436508	116
0	559	130.161549436508	117
0	563	130.970553387284	118
0	564	130.970553387284	119
0	565	132.5	118
0	571	133.069291600098	119
0	572	133.069291600098	120
0	576	134.04260531437	121
0	577	134.04260531437	122
0	581	134.865615727511	123
0	582	134.865615727511	124
0	583	135	123
0	589	136.629301109881	124
0	590	136.629301109881	125
0	591	137.5	124
0	597	139.518772995666	125
0	598	139.518772995666	126
0	602	139.980831337507	127
0	603	139.980831337507	128
0	604	140	127
0	610	141.298836383284	128
0	611	141.298836383284	129
0	615	142.203384470281	130
0	616	142.203384470281	131
0	617	142.5	130
0	623	142.858242089786	131
0	624	142.858242089786	132
0	628	143.091190245347	133
0	629	143.091190245347	134
0	633	144.60503081412	135
0	634	144.60503081412	136
0	635	145	135
0	641	146.622869387915	136
0	642	146.622869387915	137
0	643	147.5	136
0	649	147.50614217552	137
0	650	147.50614217552	138
0	654	148.508861119217	139
0	655	148.508861119217	140
0	656	150	139
0	662	151.271766937508	140
0	663	151.271766937508	141
0	664	152.5	140
0	670	154.686915699137	141
0	671	154.686915699137	142
0	672	155	141
0	678	155.342915732415	142
0	679	155.342915732415	143
0	680	157.5	142
0	686	157.511220560214	143
0	687	157.511220560214	144
0	691	158.335495451471	145
0	692	158.335495451471	146
0	693	160	145
0	699	160.261968684297	146
0	700	160.261968684297	147
0	701	162.5	146
0	707	162.666722426967	147
0	708	162.666722426967	148
0	712	163.814141755758	149
0	713	163.814141755758	150
0	714	165	149
0	720	165.967154209615	150
0	721	165.967154209615	151
0	725	167.495060907438	152
0	726	167.495060907438	153
0	727	167.5	152
0	733	168.81185867952	153
0	734	168.81185867952	154
0	735	170	153
0	741	171.699339503273	154
0	742	171.699339503273	155
0	746	171.808965052831	156
0	747	171.808965052831	157
0	748	172.5	156
0	754	173.639144084249	157
0	755	173.639144084249	158
0	756	175	157
0	762	175.060562262455	158
0	763	175.060562262455	159
0	767	175.070139200011	160
0	768	175.070139200011	161
0	772	176.290051095874	162
0	773	176.290051095874	163
0	777	176.96693588376	164
0	778	176.96693588376	165
0	782	177.07603096412	166
0	783	177.07603096412	167
0	784	177.5	166
0	790	178.176170434727	167
0	791	178.176170434727	168
0	795	179.335505426753	169
0	796	179.335505426753	170
0	797	180	169
0	803	181.121243733447	170
0	804	181.121243733447	171
0	805	182.5	170
0	811	184.636054125448	171
0	812	184.636054125448	172
0	813	185	171
0	819	185.467772610757	172
0	820	185.467772610757	173
0	824	185.832683293886	174
0	825	185.832683293886	175
0	826	187.5	174
0	832	187.643696933912	175
0	833	187.643696933912	176
0	837	188.524471098642	177
0	838	188.524471098642	178
0	839	190	177
0	842	192.5	176
0	848	193.356605292317	177
0	849	193.356605292317	178
0	850	195	177
0	856	195.58540542908	178
0	857	195.58540542908	179
0	861	195.800434856652	180
0	862	195.800434856652	181
0	866	197.164921036855	182
0	867	197.164921036855	183
0	871	197.472927006394	184
0	872	197.472927006394	185
0	873	197.5	184
0	879	197.505823497277	185
0	880	197.505823497277	186
0	884	199.845558992068	187
0	885	199.845558992068	188
0	889	199.877019500758	189
0	890	199.877019500758	190
0	891	200	189
0	897	200.281144772653	190
0	898	200.281144772653	191
0	902	200.334615810121	192
0	903	200.334615810121	193
0	907	200.653598142537	194
0	908	200.653598142537	195
0	912	201.014525788184	196
0	913	201.014525788184	197
0	914	202.5	196
0	920	203.191329807663	197
0	921	203.191329807663	198
0	922	205	197
0	928	205.557283964708	198
0	929	205.557283964708	199
0	930	207.5	198
0	936	207.77162495568	199
0	937	207.77162495568	200
0	941	209.144889885911	201
0	942	209.144889885911	202
0	946	209.648100436649	203
0	947	209.648100436649	204
0	948	210	203
0	954	211.0233198751	204
0	955	211.0233198751	205
0	956	212.5	204
0	962	213.190136537032	205
0	963	213.190136537032	206
0	967	213.922747564032	207
0	968	213.922747564032	208
0	969	215	207
0	975	216.333474219733	208
0	976	216.333474219733	209
0	980	216.590502703804	210
0	981	216.590502703804	211
0	985	217.202694530448	212
0	986	217.202694530448	213
0	987	217.5	212
0	993	218.979121001952	213
0	994	218.979121001952	214
0	998	218.979291361991	215
0	999	218.979291361991	216
0	1000	220	215
0	1006	220.860225316411	216
0	1007	220.860225316411	217
0	1011	222.34038712864	218
0	1012	222.34038712864	219
0	1013	222.5	218
0	1016	225	217
0	1022	225.668212686327	218
0	1023	225.668212686327	219
0	1027	226.959151999371	220
0	1028	226.959151999371	221
0	1032	227.293167769426	222
0	1033	227.293167769426	223
0	1034	227.5	222
0	1037	230	221
0	1043	231.375342427321	222
0	1044	231.375342427321	223
0	1045	232.5	222
0	1051	232.988539510129	223
0	1052	232.988539510129	224
0	1053	235	223
0	1059	235.198840081107	224
0	1060	235.198840081107	225
0	1061	237.5	224
0	1067	237.644009757172	225
0	1068	237.644009757172	226
0	1072	238.709901513279	227
0	1073	238.709901513279	228
0	1077	239.72748022242	229
0	1078	239.72748022242	230
0	1079	240	229
0	1085	240.713928253978	230
0	1086	240.713928253978	231
0	1090	241.884245629715	232
0	1091	241.884245629715	233
0	1092	242.5	232
0	1095	245	231
0	1101	247.046184270112	232
0	1102	247.046184270112	233
0	1103	247.5	232
0	1109	248.404490734941	233
0	1110	248.404490734941	234
0	1111	250	233
0	1117	251.046686308702	234
0	1118	251.046686308702	235
0	1122	251.196881463863	236
0	1123	251.196881463863	237
0	1127	252.019698387775	238
0	1128	252.019698387775	239
0	1129	252.5	238
0	1135	253.345616831265	239
0	1136	253.345616831265	240
0	1140	254.428841662446	241
0	1141	254.428841662446	242
0	1142	255	241
0	1148	255.950180974629	242
0	1149	255.950180974629	243
0	1150	257.5	242
0	1156	257.633124677306	243
0	1157	257.633124677306	244
0	1161	259.423255434589	245
0	1162	259.423255434589	246
0	1163	260	245
0	1169	262.38573497186	246
0	1170	262.38573497186	247
0	1171	262.5	246
0	1177	262.66327989404	247
0	1178	262.66327989404	248
0	1182	263.932047072187	249
0	1183	263.932047072187	250
0	1187	264.847618804339	251
0	1188	264.847618804339	252
0	1189	265	251
0	1195	265.358823647058	252
0	1196	265.358823647058	253
0	1200	265.374294575527	254
0	1201	265.374294575527	255
0	1202	267.5	254
0	1208	267.595993094099	255
0	1209	267.595993094099	256
0	1213	269.803706876684	257
0	1214	269.803706876684	258
0	1215	270	257
0	1221	271.058310533737	258
0	1222	271.058310533737	259
0	1226	271.426410852393	260
0	1227	271.426410852393	261
0	1228	272.5	260
0	1234	272.677302656532	261
0	1235	272.677302656532	262
0	1239	272.855229716799	263
0	1240	272.855229716799	264
0	1241	275	263
0	1247	275.511983263779	264
0	1248	275.511983263779	265
0	1252	277.40453812696	266
0	1253	277.40453812696	267
0	1254	277.5	266
0	1260	277.98945999519	267
0	1261	277.98945999519	268
0	1265	278.940197053723	269
0	1266	278.940197053723	270
0	1270	279.717423570282	271
0	1271	279.717423570282	272
0	1272	280	271
0	1278	281.668400422892	272
0	1279	281.668400422892	273
0	1280	282.5	272
0	1286	282.734252534434	273
0	1287	282.734252534434	274
0	1288	285	273
0	1294	285.632729070611	274
0	1295	285.632729070611	275
0	1299	286.445037124611	276
0	1300	286.445037124611	277
0	1304	286.879037352964	278
0	1305	286.879037352964	279
0	1306	287.5	278
0	1312	287.759072491323	279
0	1313	287.759072491323	280
0	1317	289.94921003808	281
0	1318	289.94921003808	282
0	1319	290	281
0	1325	291.217270597689	282
0	1326	291.217270597689	283
0	1327	292.5	282
0	1333	294.172833253652	283
0	1334	294.172833253652	284
0	1335	295	283
0	1338	297.5	282
0	1344	298.473012596906	283
0	1345	298.473012596906	284
0	1346	300	283
0	1352	301.063108169338	284
0	1353	301.063108169338	285
0	1357	301.186036034896	286
0	1358	301.186036034896	287
0	1359	302.5	286
0	1365	303.264746050576	287
0	1366	303.264746050576	288
0	1370	304.93397020441	289
0	1371	304.93397020441	290
0	1372	305	289
0	1378	305.609974212305	290
0	1379	305.609974212305	291
0	1383	305.706828139214	292
0	1384	305.706828139214	293
0	1388	305.927559648039	294
0	1389	305.927559648039	295
0	1393	306.486599448022	296
0	1394	306.486599448022	297
0	1395	307.5	296
0	1401	308.643448835656	297
0	1402	308.643448835656	298
0	1406	308.662896955423	299
0	1407	308.662896955423	300
0	1408	310	299
0	1414	310.99857321464	300
0	1415	310.99857321464	301
0	1419	312.083253561615	302
0	1420	312.083253561615	303
0	1421	312.5	302
0	1427	313.094039539689	303
0	1428	313.094039539689	304
0	1432	314.792654732724	305
0	1433	314.792654732724	306
0	1434	315	305
0	1437	317.5	304
0	1443	318.324597031293	305
0	1444	318.324597031293	306
0	1445	320	305
0	1451	320.507835643675	306
0	1452	320.507835643675	307
0	1453	322.5	306
0	1459	323.381521561522	307
0	1460	323.381521561522	308
0	1464	324.597969106551	309
0	1465	324.597969106551	310
0	1466	325	309
0	1472	325.405405265649	310
0	1473	325.405405265649	311
0	1477	327.115653690127	312
0	1478	327.115653690127	313
0	1479	327.5	312
0	1485	329.06883787794	313
0	1486	329.06883787794	314
0	1487	330	313
0	1493	331.549613584862	314
0	1494	331.549613584862	315
0	1495	332.5	314
0	1501	333.271269481329	315
0	1502	333.271269481329	316
0	1506	334.776648203756	317
0	1507	334.776648203756	318
0	1508	335	317
0	1514	336.526547348275	318
0	1515	336.526547348275	319
0	1519	336.58053278643	320
0	1520	336.58053278643	321
0	1521	337.5	320
0	1527	339.338030142131	321
0	1528	339.338030142131	322
0	1532	339.689035445454	323
0	1533	339.689035445454	324
0	1537	339.819212346859	325
0	1538	339.819212346859	326
0	1539	340	325
0	1542	342.5	324
0	1548	342.887635935788	325
0	1549	342.887635935788	326
0	1553	344.265275159634	327
0	1554	344.265275159634	328
0	1555	345	327
0	1561	345.287029214646	328
0	1562	345.287029214646	329
0	1566	345.786788645043	330
0	1567	345.786788645043	331
0	1571	347.213380471531	332
0	1572	347.213380471531	333
0	1573	347.5	332
0	1579	348.808374785703	333
0	1580	348.808374785703	334
0	1584	349.740145900372	335
0	1585	349.740145900372	336
0	1586	350	335
0	1592	350.056737842585	336
0	1593	350.056737842585	337
0	1597	350.771811079521	338
0	1598	350.771811079521	339
0	1602	352.222077373767	340
0	1603	352.222077373767	341
0	1604	352.5	340
0	1607	355	339
0	1613	355.720683017314	340
0	1614	355.720683017314	341
0	1618	356.219116363337	342
0	1619	356.219116363337	343
0	1623	357.206522995266	344
0	1624	357.206522995266	345
0	1625	357.5	344
0	1631	357.914556959793	345
0	1632	357.914556959793	346
0	1633	360	345
0	1639	360.449491242025	346
0	1640	360.449491242025	347
0	1644	362.4850519437	348
0	1645	362.4850519437	349
0	1646	362.5	348
0	1652	363.019711726578	349
0	1653	363.019711726578	350
0	1657	364.455509775034	351
0	1658	364.455509775034	352
0	1662	364.557769396195	353
0	1663	364.557769396195	354
0	1664	365	353
0	1670	366.35914412135	354
0	1671	366.35914412135	355
0	1672	367.5	354
0	1678	368.665288154182	355
0	1679	368.665288154182	356
0	1680	370	355
0	1686	371.809648730738	356
0	1687	371.809648730738	357
0	1688	372.5	356
0	1694	373.996512378974	357
0	1695	373.996512378974	358
0	1696	375	357
0	1702	376.799283844047	358
0	1703	376.799283844047	359
0	1704	377.5	358
0	1710	378.794376769129	359
0	1711	378.794376769129	360
0	1712	380	359
0	1718	380.812517947666	360
0	1719	380.812517947666	361
0	1723	380.923762009713	362
0	1724	380.923762009713	363
0	1728	381.763232211595	364
0	1729	381.763232211595	365
0	1733	382.102690048639	366
0	1734	382.102690048639	367
0	1738	382.428574099835	368
0	1739	382.428574099835	369
0	1740	382.5	368
0	1746	384.097436750148	369
0	1747	384.097436750148	370
0	1751	384.597378306852	371
0	1752	384.597378306852	372
0	1753	385	371
0	1759	385.199390727293	372
0	1760	385.199390727293	373
0	1764	386.862400201853	374
0	1765	386.862400201853	375
0	1769	387.116210184719	376
0	1770	387.116210184719	377
0	1774	387.461780531144	378
0	1775	387.461780531144	379
0	1776	387.5	378
0	1782	387.749402684723	379
0	1783	387.749402684723	380
0	1784	390	379
0	1790	390.121276056455	380
0	1791	390.121276056455	381
0	1795	390.807727796419	382
0	1796	390.807727796419	383
0	1800	391.70206139506	384
0	1801	391.70206139506	385
0	1802	392.5	384
0	1808	392.894978035053	385
0	1809	392.894978035053	386
0	1810	395	385
0	1816	395.013397163753	386
0	1817	395.013397163753	387
0	1821	395.533304797855	388
0	1822	395.533304797855	389
0	1823	397.5	388
0	1829	399.634894465881	389
0	1830	399.634894465881	390
0	1831	400	389
0	1837	401.024912157434	390
0	1838	401.024912157434	391
0	1839	402.5	390
0	1845	403.142785016451	391
0	1846	403.142785016451	392
0	1850	404.685930529972	393
0	1851	404.685930529972	394
0	1855	404.906451063383	395
0	1856	404.906451063383	396
0	1857	405	395
0	1863	405.940821867264	396
0	1864	405.940821867264	397
0	1868	407.397361639653	398
0	1869	407.397361639653	399
0	1870	407.5	398
0	1876	407.865643611861	399
0	1877	407.865643611861	400
0	1881	409.05717096145	401
0	1882	409.05717096145	402
0	1883	410	401
0	1889	411.116116400455	402
0	1890	411.116116400455	403
0	1894	411.512209586749	404
0	1895	411.512209586749	405
0	1899	412.413069992198	406
0	1900	412.413069992198	407
0	1901	412.5	406
0	1907	413.18890107983	407
0	1908	413.18890107983	408
0	1909	415	407
0	1915	416.193953304148	408
0	1916	416.193953304148	409
0	1917	417.5	408
0	1923	419.548911421286	409
0	1924	419.548911421286	410
0	1925	420	409
0	1931	420.852528083604	410
0	1932	420.852528083604	411
0	1933	422.5	410
0	1939	422.813343337209	411
0	1940	422.813343337209	412
0	1944	424.732451992	413
0	1945	424.732451992	414
0	1946	425	413
0	1952	426.908815211892	414
0	1953	426.908815211892	415
0	1954	427.5	414
0	1960	428.747834289536	415
0	1961	428.747834289536	416
0	1962	430	415
0	1968	431.827273044573	416
0	1969	431.827273044573	417
0	1973	432.393840124991	418
0	1974	432.393840124991	419
0	1975	432.5	418
0	1981	432.938833206836	419
0	1982	432.938833206836	420
0	1986	434.763192579457	421
0	1987	434.763192579457	422
0	1988	435	421
0	1994	435.730039173333	422
0	1995	435.730039173333	423
0	1996	437.5	422
0	2002	437.707801049447	423
0	2003	437.707801049447	424
0	2007	439.422769495607	425
0	2008	439.422769495607	426
0	2009	440	425
0	2015	440.342673078241	426
0	2016	440.342673078241	427
0	2020	441.545493861337	428
0	2021	441.545493861337	429
0	2022	442.5	428
0	2028	443.821418037857	429
0	2029	443.821418037857	430
0	2030	445	429
0	2036	445.826455825902	430
0	2037	445.826455825902	431
0	2041	446.360582856905	432
0	2042	446.360582856905	433
0	2046	446.582671135722	434
0	2047	446.582671135722	435
0	2048	447.5	434
0	2054	447.943076198124	435
0	2055	447.943076198124	436
0	2059	448.544374472052	437
0	2060	448.544374472052	438
0	2064	449.517888141793	439
0	2065	449.517888141793	440
0	2066	450	439
0	2069	452.5	438
0	2075	452.840047424942	439
0	2076	452.840047424942	440
0	2080	454.517976892571	441
0	2081	454.517976892571	442
0	2082	455	441
0	2088	455.781279502516	442
0	2089	455.781279502516	443
0	2093	457.491584401638	444
0	2094	457.491584401638	445
0	2095	457.5	444
0	2101	458.895970934828	445
0	2102	458.895970934828	446
0	2103	460	445
0	2109	460.451380633438	446
0	2110	460.451380633438	447
0	2114	460.700922064084	448
0	2115	460.700922064084	449
0	2119	461.236754003344	450
0	2120	461.236754003344	451
0	2124	461.872426041028	452
0	2125	461.872426041028	453
0	2126	462.5	452
0	2132	463.6913634952	453
0	2133	463.6913634952	454
0	2137	463.906564367023	455
0	2138	463.906564367023	456
0	2142	464.005024826785	457
0	2143	464.005024826785	458
0	2147	464.644363147973	459
0	2148	464.644363147973	460
0	2152	464.906173087608	461
0	2153	464.906173087608	462
0	2154	465	461
0	2160	466.72182787683	462
0	2161	466.72182787683	463
0	2165	467.262856401381	464
0	2166	467.262856401381	465
0	2167	467.5	464
0	2173	468.489812791301	465
0	2174	468.489812791301	466
0	2175	470	465
0	2181	471.407356543863	466
0	2182	471.407356543863	467
0	2183	472.5	466
0	2189	473.88421524074	467
0	2190	473.88421524074	468
0	2191	475	467
0	2197	477.303819761587	468
0	2198	477.303819761587	469
0	2199	477.5	468
0	2205	478.507558903215	469
0	2206	478.507558903215	470
0	2210	479.420659168054	471
0	2211	479.420659168054	472
0	2212	480	471
0	2218	481.175392315802	472
0	2219	481.175392315802	473
0	2223	481.634349966183	474
0	2224	481.634349966183	475
0	2228	482.392066499112	476
0	2229	482.392066499112	477
0	2230	482.5	476
0	2233	485	475
0	2239	485.612463246455	476
0	2240	485.612463246455	477
0	2244	487.148686951993	478
0	2245	487.148686951993	479
0	2246	487.5	478
0	2252	488.220593960539	479
0	2253	488.220593960539	480
0	2257	489.645215436799	481
0	2258	489.645215436799	482
0	2259	490	481
0	2265	491.485010530156	482
0	2266	491.485010530156	483
0	2267	492.5	482
0	2273	493.077241065325	483
0	2274	493.077241065325	484
0	2278	493.243866413435	485
0	2279	493.243866413435	486
0	2283	493.74169242633	487
0	2284	493.74169242633	488
0	2288	494.837692390392	489
0	2289	494.837692390392	490
0	2290	495	489
0	2296	497.40254625944	490
0	2297	497.40254625944	491
0	2298	497.5	490
0	2301	500	489
0	2307	500.026757082208	490
0	2308	500.026757082208	491
0	2312	500.444515078989	492
0	2313	500.444515078989	493
0	2317	500.617762458214	494
0	2318	500.617762458214	495
0	2322	500.692420508272	496
0	2323	500.692420508272	497
0	2327	501.18173421188	498
0	2328	501.18173421188	499
0	2332	501.929506403446	500
0	2333	501.929506403446	501
0	2334	502.5	500
0	2340	502.529589895282	501
0	2341	502.529589895282	502
0	2345	503.138815420931	503
0	2346	503.138815420931	504
0	2347	505	503
0	2353	505.469591980078	504
0	2354	505.469591980078	505
0	2358	506.748677522347	506
0	2359	506.748677522347	507
0	2363	507.046800792626	508
0	2364	507.046800792626	509
0	2365	507.5	508
0	2368	510	507
0	2374	510.520808800855	508
0	2375	510.520808800855	509
0	2376	512.5	508
0	2382	513.173356363184	509
0	2383	513.173356363184	510
0	2387	513.646893535238	511
0	2388	513.646893535238	512
0	2389	515	511
0	2395	515.900027339165	512
0	2396	515.900027339165	513
0	2400	517.423107047265	514
0	2401	517.423107047265	515
0	2402	517.5	514
0	2408	518.335334239699	515
0	2409	518.335334239699	516
0	2413	518.720293087525	517
0	2414	518.720293087525	518
0	2418	518.994174343661	519
0	2419	518.994174343661	520
0	2420	520	519
0	2426	520.370004270488	520
0	2427	520.370004270488	521
0	2428	522.5	520
0	2434	522.858373025443	521
0	2435	522.858373025443	522
0	2439	524.879817506229	523
0	2440	524.879817506229	524
0	2441	525	523
0	2444	527.5	522
0	2450	528.279622440348	523
0	2451	528.279622440348	524
0	2455	528.583468216714	525
0	2456	528.583468216714	526
0	2457	530	525
0	2463	530.505383180764	526
0	2464	530.505383180764	527
0	2468	530.857552020507	528
0	2469	530.857552020507	529
0	2473	531.085911423376	530
0	2474	531.085911423376	531
0	2475	532.5	530
0	2481	533.220935802275	531
0	2482	533.220935802275	532
0	2486	534.565291645596	533
0	2487	534.565291645596	534
0	2488	535	533
0	2491	537.5	532
0	2497	537.555031802462	533
0	2498	537.555031802462	534
0	2502	539.421654026883	535
0	2503	539.421654026883	536
0	2504	540	535
0	2510	540.06265484816	536
0	2511	540.06265484816	537
0	2515	540.475731574121	538
0	2516	540.475731574121	539
0	2520	541.436585550995	540
0	2521	541.436585550995	541
0	2525	542.427503694947	542
0	2526	542.427503694947	543
0	2527	542.5	542
0	2533	544.240427742349	543
0	2534	544.240427742349	544
0	2538	544.784367194639	545
0	2539	544.784367194639	546
0	2540	545	545
0	2543	547.5	544
0	2549	549.233355444162	545
0	2550	549.233355444162	546
0	2551	550	545
0	2557	550.798772925308	546
0	2558	550.798772925308	547
0	2562	551.150340227931	548
0	2563	551.150340227931	549
0	2564	552.5	548
0	2570	553.76280978693	549
0	2571	553.76280978693	550
0	2575	554.75623992607	551
0	2576	554.75623992607	552
0	2577	555	551
0	2583	556.479578535724	552
0	2584	556.479578535724	553
0	2585	557.5	552
0	2591	558.523905265918	553
0	2592	558.523905265918	554
0	2596	559.903275353765	555
0	2597	559.903275353765	556
0	2598	560	555
0	2604	561.882097724	556
0	2605	561.882097724	557
0	2606	562.5	556
0	2609	565	555
0	2615	565.663419980679	556
0	2616	565.663419980679	557
0	2620	566.902303451094	558
0	2621	566.902303451094	559
0	2622	567.5	558
0	2628	567.778721670775	559
0	2629	567.778721670775	560
0	2633	569.553815212987	561
0	2634	569.553815212987	562
0	2638	569.55434924501	563
0	2639	569.55434924501	564
0	2640	570	563
0	2646	571.060634172777	564
0	2647	571.060634172777	565
0	2651	572.052320390752	566
0	2652	572.052320390752	567
0	2653	572.5	566
0	2659	573.766203927227	567
0	2660	573.766203927227	568
0	2664	574.168691379731	569
0	2665	574.168691379731	570
0	2666	575	569
0	2672	576.70358862385	570
0	2673	576.70358862385	571
0	2674	577.5	570
0	2677	580	569
0	2683	580.017432951176	570
0	2684	580.017432951176	571
0	2688	580.537628589235	572
0	2689	580.537628589235	573
0	2693	580.709589099855	574
0	2694	580.709589099855	575
0	2698	581.884961840012	576
0	2699	581.884961840012	577
0	2703	582.452955958133	578
0	2704	582.452955958133	579
0	2705	582.5	578
0	2711	583.930747135899	579
0	2712	583.930747135899	580
0	2713	585	579
0	2719	586.657469761693	580
0	2720	586.657469761693	581
0	2721	587.5	580
0	2727	589.04517369798	581
0	2728	589.04517369798	582
0	2729	590	581
0	2735	590.491045701937	582
0	2736	590.491045701937	583
0	2737	592.5	582
0	2743	593.846823732633	583
0	2744	593.846823732633	584
0	2745	595	583
0	2751	595.616821044773	584
0	2752	595.616821044773	585
0	2756	596.336249610984	586
0	2757	596.336249610984	587
0	2761	596.382614284089	588
0	2762	596.382614284089	589
0	2766	597.000265200257	590
0	2767	597.000265200257	591
0	2768	597.5	590
0	2774	598.717454512302	591
0	2775	598.717454512302	592
0	2779	599.944801388911	593
0	2780	599.944801388911	594
0	2781	600	593
0	2787	601.777839415573	594
0	2788	601.777839415573	595
0	2792	601.803320831123	596
0	2793	601.803320831123	597
0	2794	602.5	596
0	2800	603.088732941208	597
0	2801	603.088732941208	598
0	2802	605	597
0	2805	607.5	596
0	2811	608.038457432685	597
0	2812	608.038457432685	598
0	2816	609.361244266309	599
0	2817	609.361244266309	600
0	2818	610	599
0	2824	611.609868832343	600
0	2825	611.609868832343	601
0	2826	612.5	600
0	2832	612.954514158637	601
0	2833	612.954514158637	602
0	2837	613.04644876972	603
0	2838	613.04644876972	604
0	2842	613.192620904489	605
0	2843	613.192620904489	606
0	2847	613.996783422492	607
0	2848	613.996783422492	608
0	2849	615	607
0	2855	615.752600657027	608
0	2856	615.752600657027	609
0	2857	617.5	608
0	2863	619.883573056237	609
0	2864	619.883573056237	610
0	2865	620	609
0	2871	621.672354397624	610
0	2872	621.672354397624	611
0	2873	622.5	610
0	2879	622.847577309043	611
0	2880	622.847577309043	612
0	2884	623.607718405041	613
0	2885	623.607718405041	614
0	2889	624.95026507464	615
0	2890	624.95026507464	616
0	2891	625	615
0	2897	625.586987844776	616
0	2898	625.586987844776	617
0	2902	627.474812398493	618
0	2903	627.474812398493	619
0	2904	627.5	618
0	2910	627.514817804655	619
0	2911	627.514817804655	620
0	2915	628.071264997721	621
0	2916	628.071264997721	622
0	2920	629.345279927753	623
0	2921	629.345279927753	624
0	2925	629.489469915379	625
0	2926	629.489469915379	626
0	2927	630	625
0	2933	631.521911970633	626
0	2934	631.521911970633	627
0	2938	631.96008796119	628
0	2939	631.96008796119	629
0	2940	632.5	628
0	2946	632.862407895797	629
0	2947	632.862407895797	630
0	2948	635	629
0	2954	635.862982268464	630
0	2955	635.862982268464	631
0	2959	635.988603802192	632
0	2960	635.988603802192	633
0	2964	636.683042699861	634
0	2965	636.683042699861	635
0	2966	637.5	634
0	2972	637.532893585357	635
0	2973	637.532893585357	636
0	2977	638.426620033592	637
0	2978	638.426620033592	638
0	2982	639.918792702669	639
0	2983	639.918792702669	640
0	2984	640	639
0	2990	641.483247592682	640
0	2991	641.483247592682	641
0	2992	642.5	640
0	2998	643.573298063869	641
0	2999	643.573298063869	642
0	3000	645	641
0	3006	646.951785567419	642
0	3007	646.951785567419	643
0	3008	647.5	642
0	3014	648.934661071497	643
0	3015	648.934661071497	644
0	3019	649.15747447326	645
0	3020	649.15747447326	646
0	3021	650	645
0	3027	652.334909536686	646
0	3028	652.334909536686	647
0	3029	652.5	646
0	3035	654.287767320465	647
0	3036	654.287767320465	648
0	3037	655	647
0	3043	655.355444566473	648
0	3044	655.355444566473	649
0	3045	657.5	648
0	3051	657.976499029464	649