version 3
run k_MM1_rand-25-20221127-16:03:21-5740
attr configname k_MM1_rand
attr datetime 20221127-16:03:21
attr datetimef 20221127-160321
attr experiment k_MM1_rand
attr inifile omnetpp.ini
attr iterationvars "$time=2.5, $num=1, $0=45732, $1=35463, $2=67563"
attr iterationvarsd time=2.5/num=1/45732/35463/67563
attr iterationvarsf time=2.5,num=1,45732,35463,67563-
attr measurement "$time=2.5, $num=1, $0=45732, $1=35463, $2=67563"
attr network randkMM1
attr processid 5740
attr repetition 1
attr replication #1
attr resultdir results
attr runnumber 25
attr seedset 25
itervar num 1
itervar time 2.5
config description "MM1 module k-times random"
config network randkMM1
config **.source.interArrivalTime "truncnormal(0.5s, 1.5s)"
config **.serviceTime 2.5s
config **.c 1
config **.capacity 10000
config record-eventlog false
config **.scalar-recording true
config **.vector-recording true
config repeat 4
config seed-1-mt 45732
config seed-2-mt 35463
config seed-3-mt 67563
config output-vector-file k_MM1_rand-1-2.5-results/1.vec
config output-scalar-file k_MM1_rand-1-2.5-results/1.sca

vector 0 randkMM1.mm1[0] queueLength:vector ETV
attr interpolationmode none
attr recordingmode vector
attr title "queue length"
vector 1 randkMM1.mm1[0] util:vector ETV
attr interpolationmode none
attr recordingmode vector
attr title resources
0	5	10	1
0	9	11.486460179298	2
0	10	11.486460179298	3
0	14	12.391575940124	4
0	15	12.391575940124	5
0	16	12.5	4
0	22	13.794033402005	5
0	23	13.794033402005	6
0	27	14.25083002865	7
0	28	14.25083002865	8
0	29	15	7
0	35	15.479743336899	8
0	36	15.479743336899	9
0	40	15.721574060565	10
0	41	15.721574060565	11
0	45	16.322946711451	12
0	46	16.322946711451	13
0	47	17.5	12
0	53	18.259785802684	13
0	54	18.259785802684	14
0	58	19.489416774715	15
0	59	19.489416774715	16
0	60	20	15
0	66	21.185286155698	16
0	67	21.185286155698	17
0	71	21.567194184487	18
0	72	21.567194184487	19
0	76	22.266379134547	20
0	77	22.266379134547	21
0	78	22.5	20
0	84	24.460984494359	21
0	85	24.460984494359	22
0	86	25	21
0	92	26.017536354225	22
0	93	26.017536354225	23
0	97	26.20470857976	24
0	98	26.20470857976	25
0	102	27.202669947951	26
0	103	27.202669947951	27
0	104	27.5	26
0	110	28.423332894194	27
0	111	28.423332894194	28
0	115	29.313439654155	29
0	116	29.313439654155	30
0	120	29.57982220325	31
0	121	29.57982220325	32
0	122	30	31
0	128	31.61001144828	32
0	129	31.61001144828	33
0	130	32.5	32
0	136	33.737641458965	33
0	137	33.737641458965	34
0	138	35	33
0	144	36.534966075948	34
0	145	36.534966075948	35
0	146	37.5	34
0	152	39.115785068399	35
0	153	39.115785068399	36
0	157	39.806608648063	37
0	158	39.806608648063	38
0	159	40	37
0	165	41.433001966769	38
0	166	41.433001966769	39
0	167	42.5	38
0	173	43.631701620138	39
0	174	43.631701620138	40
0	178	44.766532329019	41
0	179	44.766532329019	42
0	180	45	41
0	186	45.774902047116	42
0	187	45.774902047116	43
0	191	46.707965365395	44
0	192	46.707965365395	45
0	196	47.21562083043	46
0	197	47.21562083043	47
0	198	47.5	46
0	201	50	45
0	207	50.082574001914	46
0	208	50.082574001914	47
0	209	52.5	46
0	215	53.374010582868	47
0	216	53.374010582868	48
0	220	54.524404141337	49
0	221	54.524404141337	50
0	222	55	49
0	228	55.725257965664	50
0	229	55.725257965664	51
0	233	57.127490431804	52
0	234	57.127490431804	53
0	235	57.5	52
0	241	58.811389896108	53
0	242	58.811389896108	54
0	243	60	53
0	249	60.445549995502	54
0	250	60.445549995502	55
0	254	61.298982174744	56
0	255	61.298982174744	57
0	259	62.460778381946	58
0	260	62.460778381946	59
0	261	62.5	58
0	267	62.659171484252	59
0	268	62.659171484252	60
0	272	63.027288865304	61
0	273	63.027288865304	62
0	277	63.723444840994	63
0	278	63.723444840994	64
0	282	63.977205344953	65
0	283	63.977205344953	66
0	287	64.966548152328	67
0	288	64.966548152328	68
0	289	65	67
0	295	65.406132346045	68
0	296	65.406132346045	69
0	297	67.5	68
0	303	68.278288466259	69
0	304	68.278288466259	70
0	308	68.364206748551	71
0	309	68.364206748551	72
0	313	69.135613448306	73
0	314	69.135613448306	74
0	318	69.621533002209	75
0	319	69.621533002209	76
0	323	69.87254891054	77
0	324	69.87254891054	78
0	325	70	77
0	331	70.311197518562	78
0	332	70.311197518562	79
0	336	70.912448690934	80
0	337	70.912448690934	81
0	338	72.5	80
0	344	73.879307493423	81
0	345	73.879307493423	82
0	349	74.038301613653	83
0	350	74.038301613653	84
0	351	75	83
0	357	76.036967830578	84
0	358	76.036967830578	85
0	362	76.179930644261	86
0	363	76.179930644261	87
0	364	77.5	86
0	370	77.618029505864	87
0	371	77.618029505864	88
0	375	78.549653532231	89
0	376	78.549653532231	90
0	377	80	89
0	383	80.183310638989	90
0	384	80.183310638989	91
0	388	81.321899853924	92
0	389	81.321899853924	93
0	390	82.5	92
0	393	85	91
0	399	85.378048669314	92
0	400	85.378048669314	93
0	401	87.5	92
0	407	88.420182952268	93
0	408	88.420182952268	94
0	412	89.407722531531	95
0	413	89.407722531531	96
0	414	90	95
0	420	91.396401518149	96
0	421	91.396401518149	97
0	422	92.5	96
0	428	93.362019631923	97
0	429	93.362019631923	98
0	433	93.689430144922	99
0	434	93.689430144922	100
0	435	95	99
0	441	95.404828021086	100
0	442	95.404828021086	101
0	446	95.929020568613	102
0	447	95.929020568613	103
0	451	96.944599492061	104
0	452	96.944599492061	105
0	456	97.265246491174	106
0	457	97.265246491174	107
0	458	97.5	106
0	461	100	105
0	467	100.220661783229	106
0	468	100.220661783229	107
0	472	100.737797283867	108
0	473	100.737797283867	109
0	477	101.113612069787	110
0	478	101.113612069787	111
0	482	102.043078144347	112
0	483	102.043078144347	113
0	487	102.319234109618	114
0	488	102.319234109618	115
0	492	102.383010412128	116
0	493	102.383010412128	117
0	494	102.5	116
0	497	105	115
0	503	107.48121962465	116
0	504	107.48121962465	117
0	505	107.5	116
0	511	108.755840269207	117
0	512	108.755840269207	118
0	516	109.22455010544	119
0	517	109.22455010544	120
0	518	110	119
0	524	110.155676413247	120
0	525	110.155676413247	121
0	529	110.924850249906	122
0	530	110.924850249906	123
0	534	112.300752488579	124
0	535	112.300752488579	125
0	536	112.5	124
0	539	115	123
0	545	115.201573035449	124
0	546	115.201573035449	125
0	550	117.274349779317	126
0	551	117.274349779317	127
0	552	117.5	126
0	558	117.514579394615	127
0	559	117.514579394615	128
0	563	117.780813898266	129
0	564	117.780813898266	130
0	568	118.581266707325	131
0	569	118.581266707325	132
0	570	120	131
0	576	121.056512304879	132
0	577	121.056512304879	133
0	581	121.084822142076	134
0	582	121.084822142076	135
0	586	121.422304529566	136
0	587	121.422304529566	137
0	591	121.479117905908	138
0	592	121.479117905908	139
0	593	122.5	138
0	599	123.194474289126	139
0	600	123.194474289126	140
0	601	125	139
0	607	125.447917903027	140
0	608	125.447917903027	141
0	609	127.5	140
0	615	128.606868934856	141
0	616	128.606868934856	142
0	617	130	141
0	623	130.837370605064	142
0	624	130.837370605064	143
0	625	132.5	142
0	628	135	141
0	634	135.615521368988	142
0	635	135.615521368988	143
0	639	136.992843125738	144
0	640	136.992843125738	145
0	644	137.30505171707	146
0	645	137.30505171707	147
0	646	137.5	146
0	652	138.510273405991	147
0	653	138.510273405991	148
0	657	139.23320503324	149
0	658	139.23320503324	150
0	659	140	149
0	665	142.41906867117	150
0	666	142.41906867117	151
0	667	142.5	150
0	673	143.347180916908	151
0	674	143.347180916908	152
0	678	144.627545114916	153
0	679	144.627545114916	154
0	683	144.864579947673	155
0	684	144.864579947673	156
0	685	145	155
0	691	145.796209141501	156
0	692	145.796209141501	157
0	696	146.010794687098	158
0	697	146.010794687098	159
0	701	147.310265392724	160
0	702	147.310265392724	161
0	703	147.5	160
0	709	148.923615182294	161
0	710	148.923615182294	162
0	714	149.00014734721	163
0	715	149.00014734721	164
0	719	149.491269725576	165
0	720	149.491269725576	166
0	721	150	165
0	727	151.275305993574	166
0	728	151.275305993574	167
0	732	151.760106378481	168
0	733	151.760106378481	169
0	734	152.5	168
0	737	155	167
0	743	155.213600103896	168
0	744	155.213600103896	169
0	745	157.5	168
0	751	159.336874335459	169
0	752	159.336874335459	170
0	753	160	169
0	759	160.743363326811	170
0	760	160.743363326811	171
0	761	162.5	170
0	764	165	169
0	770	165.047371261028	170
0	771	165.047371261028	171
0	775	165.380183359763	172
0	776	165.380183359763	173
0	780	165.423639317883	174
0	781	165.423639317883	175
0	785	165.475581937028	176
0	786	165.475581937028	177
0	790	166.683357959384	178
0	791	166.683357959384	179
0	792	167.5	178
0	798	167.99628932661	179
0	799	167.99628932661	180
0	803	168.151392322088	181
0	804	168.151392322088	182
0	808	168.930773032377	183
0	809	168.930773032377	184
0	810	170	183
0	816	170.164057832435	184
0	817	170.164057832435	185
0	821	171.32507741168	186
0	822	171.32507741168	187
0	823	172.5	186
0	829	172.757121728495	187
0	830	172.757121728495	188
0	834	172.845429780986	189
0	835	172.845429780986	190
0	839	174.827006310045	191
0	840	174.827006310045	192
0	841	175	191
0	847	175.53209490426	192
0	848	175.53209490426	193
0	852	175.764794343559	194
0	853	175.764794343559	195
0	854	177.5	194
0	860	177.880584639874	195
0	861	177.880584639874	196
0	865	177.947121180197	197
0	866	177.947121180197	198
0	870	178.457768918461	199
0	871	178.457768918461	200
0	875	179.708340829284	201
0	876	179.708340829284	202
0	877	180	201
0	883	181.518402736968	202
0	884	181.518402736968	203
0	885	182.5	202
0	891	183.855269558407	203
0	892	183.855269558407	204
0	896	184.873983816072	205
0	897	184.873983816072	206
0	898	185	205
0	904	185.323649510396	206
0	905	185.323649510396	207
0	909	187.363399990843	208
0	910	187.363399990843	209
0	911	187.5	208
0	917	189.299464233991	209
0	918	189.299464233991	210
0	919	190	209
0	925	190.363462686022	210
0	926	190.363462686022	211
0	930	191.066493747903	212
0	931	191.066493747903	213
0	935	192.148222153929	214
0	936	192.148222153929	215
0	937	192.5	214
0	943	192.547558600813	215
0	944	192.547558600813	216
0	948	193.635520542748	217
0	949	193.635520542748	218
0	953	194.355750567284	219
0	954	194.355750567284	220
0	955	195	219
0	961	196.560637082292	220
0	962	196.560637082292	221
0	966	197.279656190327	222
0	967	197.279656190327	223
0	968	197.5	222
0	974	198.766653290742	223
0	975	198.766653290742	224
0	979	199.40418765841	225
0	980	199.40418765841	226
0	981	200	225
0	987	200.955961395309	226
0	988	200.955961395309	227
0	989	202.5	226
0	995	203.510347305004	227
0	996	203.510347305004	228
0	1000	204.06374268004	229
0	1001	204.06374268004	230
0	1005	204.660055873158	231
0	1006	204.660055873158	232
0	1010	204.700181963195	233
0	1011	204.700181963195	234
0	1012	205	233
0	1018	206.664132319361	234
0	1019	206.664132319361	235
0	1020	207.5	234
0	1026	209.3428520337	235
0	1027	209.3428520337	236
0	1028	210	235
0	1034	210.64902805814	236
0	1035	210.64902805814	237
0	1036	212.5	236
0	1042	212.684830538376	237
0	1043	212.684830538376	238
0	1047	213.116153030059	239
0	1048	213.116153030059	240
0	1049	215	239
0	1055	216.608683963641	240
0	1056	216.608683963641	241
0	1057	217.5	240
0	1063	219.391690061656	241
0	1064	219.391690061656	242
0	1068	219.627222610094	243
0	1069	219.627222610094	244
0	1070	220	243
0	1076	222.368967194047	244
0	1077	222.368967194047	245
0	1078	222.5	244
0	1084	223.652939890803	245
0	1085	223.652939890803	246
0	1089	224.577670226013	247
0	1090	224.577670226013	248
0	1091	225	247
0	1097	226.433899727395	248
0	1098	226.433899727395	249
0	1099	227.5	248
0	1105	228.917524233633	249
0	1106	228.917524233633	250
0	1110	229.464831011645	251
0	1111	229.464831011645	252
0	1115	229.771975440417	253
0	1116	229.771975440417	254
0	1117	230	253
0	1123	231.136869753037	254
0	1124	231.136869753037	255
0	1128	231.398255971074	256
0	1129	231.398255971074	257
0	1130	232.5	256
0	1136	232.821551729972	257
0	1137	232.821551729972	258
0	1141	234.929879018543	259
0	1142	234.929879018543	260
0	1143	235	259
0	1149	235.74083695018	260
0	1150	235.74083695018	261
0	1154	235.744655889895	262
0	1155	235.744655889895	263
0	1159	237.233497612324	264
0	1160	237.233497612324	265
0	1161	237.5	264
0	1167	237.502512622166	265
0	1168	237.502512622166	266
0	1172	239.78485263525	267
0	1173	239.78485263525	268
0	1174	240	267
0	1180	241.898937688276	268
0	1181	241.898937688276	269
0	1182	242.5	268
0	1188	243.269238466526	269
0	1189	243.269238466526	270
0	1190	245	269
0	1196	245.049000720628	270
0	1197	245.049000720628	271
0	1201	245.398634691385	272
0	1202	245.398634691385	273
0	1206	247.201349200383	274
0	1207	247.201349200383	275
0	1208	247.5	274
0	1214	248.611205524819	275
0	1215	248.611205524819	276
0	1216	250	275
0	1222	250.38462981557	276
0	1223	250.38462981557	277
0	1227	251.580758196715	278
0	1228	251.580758196715	279
0	1229	252.5	278
0	1235	252.927339050828	279
0	1236	252.927339050828	280
0	1240	254.702209291233	281
0	1241	254.702209291233	282
0	1242	255	281
0	1248	256.352731557622	282
0	1249	256.352731557622	283
0	1253	257.058344066234	284
0	1254	257.058344066234	285
0	1255	257.5	284
0	1261	258.955195903326	285
0	1262	258.955195903326	286
0	1263	260	285
0	1269	260.454512476402	286
0	1270	260.454512476402	287
0	1271	262.5	286
0	1277	263.272268233349	287
0	1278	263.272268233349	288
0	1279	265	287
0	1285	266.625006693399	288
0	1286	266.625006693399	289
0	1290	267.498898850709	290
0	1291	267.498898850709	291
0	1292	267.5	290
0	1298	268.977146203009	291
0	1299	268.977146203009	292
0	1300	270	291
0	1306	271.088008191072	292
0	1307	271.088008191072	293
0	1311	271.874660495188	294
0	1312	271.874660495188	295
0	1313	272.5	294
0	1319	274.44383529949	295
0	1320	274.44383529949	296
0	1324	274.4933320088	297
0	1325	274.4933320088	298
0	1326	275	297
0	1332	275.116481125202	298
0	1333	275.116481125202	299
0	1334	277.5	298
0	1340	278.888539000592	299
0	1341	278.888539000592	300
0	1342	280	299
0	1348	280.706048225928	300
0	1349	280.706048225928	301
0	1350	282.5	300
0	1356	282.942286998541	301
0	1357	282.942286998541	302
0	1361	284.673527379065	303
0	1362	284.673527379065	304
0	1366	284.700293553998	305
0	1367	284.700293553998	306
0	1368	285	305
0	1374	285.660377272974	306
0	1375	285.660377272974	307
0	1376	287.5	306
0	1382	288.301069686481	307
0	1383	288.301069686481	308
0	1387	289.296931492224	309
0	1388	289.296931492224	310
0	1392	289.48152268588	311
0	1393	289.48152268588	312
0	1394	290	311
0	1400	292.052953464555	312
0	1401	292.052953464555	313
0	1402	292.5	312
0	1408	294.124796489817	313
0	1409	294.124796489817	314
0	1413	294.924691028418	315
0	1414	294.924691028418	316
0	1415	295	315
0	1418	297.5	314
0	1424	299.874691323773	315
0	1425	299.874691323773	316
0	1426	300	315
0	1432	301.333906977966	316
0	1433	301.333906977966	317
0	1434	302.5	316
0	1440	302.734409296179	317
0	1441	302.734409296179	318
0	1442	305	317
0	1448	305.695548123552	318
0	1449	305.695548123552	319
0	1450	307.5	318
0	1456	308.270037194889	319
0	1457	308.270037194889	320
0	1461	308.689961174678	321
0	1462	308.689961174678	322
0	1466	308.824151927573	323
0	1467	308.824151927573	324
0	1468	310	323
0	1474	310.947119656566	324
0	1475	310.947119656566	325
0	1479	312.452253135169	326
0	1480	312.452253135169	327
0	1481	312.5	326
0	1487	314.563478763112	327
0	1488	314.563478763112	328
0	1489	315	327
0	1495	316.935014289858	328
0	1496	316.935014289858	329
0	1497	317.5	328
0	1503	319.243196726996	329
0	1504	319.243196726996	330
0	1505	320	329
0	1508	322.5	328
0	1514	322.516564248655	329
0	1515	322.516564248655	330
0	1519	322.614637155266	331
0	1520	322.614637155266	332
0	1524	324.383376055629	333
0	1525	324.383376055629	334
0	1526	325	333
0	1532	325.426869330416	334
0	1533	325.426869330416	335
0	1537	326.327238609385	336
0	1538	326.327238609385	337
0	1542	326.641099278926	338
0	1543	326.641099278926	339
0	1547	326.772981792274	340
0	1548	326.772981792274	341
0	1549	327.5	340
0	1555	327.869285726119	341
0	1556	327.869285726119	342
0	1560	328.571794412682	343
0	1561	328.571794412682	344
0	1565	329.025507511395	345
0	1566	329.025507511395	346
0	1567	330	345
0	1573	330.005746880434	346
0	1574	330.005746880434	347
0	1578	332.335939680624	348
0	1579	332.335939680624	349
0	1580	332.5	348
0	1586	334.796984603217	349
0	1587	334.796984603217	350
0	1588	335	349
0	1594	335.980788455909	350
0	1595	335.980788455909	351
0	1596	337.5	350
0	1602	337.631672712485	351
0	1603	337.631672712485	352
0	1607	338.870674068022	353
0	1608	338.870674068022	354
0	1609	340	353
0	1615	340.513732118109	354
0	1616	340.513732118109	355
0	1620	340.904561234817	356
0	1621	340.904561234817	357
0	1625	342.347613967833	358
0	1626	342.347613967833	359
0	1630	342.37077328559	360
0	1631	342.37077328559	361
0	1632	342.5	360
0	1638	343.708064351177	361
0	1639	343.708064351177	362
0	1643	343.995756227676	363
0	1644	343.995756227676	364
0	1645	345	363
0	1651	345.542832496614	364
0	1652	345.542832496614	365
0	1656	346.548074296329	366
0	1657	346.548074296329	367
0	1661	346.839090891501	368
0	1662	346.839090891501	369
0	1666	347.071508607741	370
0	1667	347.071508607741	371
0	1668	347.5	370
0	1674	349.505582712515	371
0	1675	349.505582712515	372
0	1679	349.793051993897	373
0	1680	349.793051993897	374
0	1681	350	373
0	1687	351.655700969671	374
0	1688	351.655700969671	375
0	1689	352.5	374
0	1695	353.431200389424	375
0	1696	353.431200389424	376
0	1700	354.320183361274	377
0	1701	354.320183361274	378
0	1702	355	377
0	1705	357.5	376
0	1711	357.564172104669	377
0	1712	357.564172104669	378
0	1716	359.995829745349	379
0	1717	359.995829745349	380
0	1718	360	379
0	1724	361.072698768273	380
0	1725	361.072698768273	381
0	1729	361.635882499789	382
0	1730	361.635882499789	383
0	1731	362.5	382
0	1737	363.551560500134	383
0	1738	363.551560500134	384
0	1739	365	383
0	1745	365.582938659258	384
0	1746	365.582938659258	385
0	1750	366.002836378719	386
0	1751	366.002836378719	387
0	1755	367.460272688897	388
0	1756	367.460272688897	389
0	1757	367.5	388
0	1760	370	387
0	1766	370.664252585785	388
0	1767	370.664252585785	389
0	1771	371.398075517202	390
0	1772	371.398075517202	391
0	1776	372.263303697567	392
0	1777	372.263303697567	393
0	1778	372.5	392
0	1784	373.88186970614	393
0	1785	373.88186970614	394
0	1786	375	393
0	1792	376.275963199202	394
0	1793	376.275963199202	395
0	1794	377.5	394
0	1800	378.720147604523	395
0	1801	378.720147604523	396
0	1802	380	395
0	1808	381.720825377345	396
0	1809	381.720825377345	397
0	1810	382.5	396
0	1816	383.780826013485	397
0	1817	383.780826013485	398
0	1821	384.649903410937	399
0	1822	384.649903410937	400
0	1826	384.685221046593	401
0	1827	384.685221046593	402
0	1828	385	401
0	1834	386.80416995024	402
0	1835	386.80416995024	403
0	1836	387.5	402
0	1842	388.997996804612	403
0	1843	388.997996804612	404
0	1847	389.921515985965	405
0	1848	389.921515985965	406
0	1849	390	405
0	1855	390.813905415425	406
0	1856	390.813905415425	407
0	1860	392.364056486454	408
0	1861	392.364056486454	409
0	1862	392.5	408
0	1868	394.045270993797	409
0	1869	394.045270993797	410
0	1870	395	409
0	1876	396.119150214112	410
0	1877	396.119150214112	411
0	1881	396.926487956225	412
0	1882	396.926487956225	413
0	1883	397.5	412
0	1889	397.99565936973	413
0	1890	397.99565936973	414
0	1894	398.100636188471	415
0	1895	398.100636188471	416
0	1899	398.909156974206	417
0	1900	398.909156974206	418
0	1901	400	417
0	1907	400.55829674564	418
0	1908	400.55829674564	419
0	1909	402.5	418
0	1915	402.971228760599	419
0	1916	402.971228760599	420
0	1920	403.36914454682	421
0	1921	403.36914454682	422
0	1922	405	421
0	1928	405.314277372951	422
0	1929	405.314277372951	423
0	1933	406.36054209186	424
0	1934	406.36054209186	425
0	1935	407.5	424
0	1941	408.988063656484	425
0	1942	408.988063656484	426
0	1946	409.065859190243	427
0	1947	409.065859190243	428
0	1951	409.068265741804	429
0	1952	409.068265741804	430
0	1956	409.563359391993	431
0	1957	409.563359391993	432
0	1958	410	431
0	1964	411.562626684429	432
0	1965	411.562626684429	433
0	1966	412.5	432
0	1972	413.117684889679	433
0	1973	413.117684889679	434
0	1977	413.572704749661	435
0	1978	413.572704749661	436
0	1979	415	435
0	1985	415.664395960127	436
0	1986	415.664395960127	437
0	1990	415.919152061373	438
0	1991	415.919152061373	439
0	1992	417.5	438
0	1998	417.861392269955	439
0	1999	417.861392269955	440
0	2003	418.39033762115	441
0	2004	418.39033762115	442
0	2005	420	441
0	2011	420.621832375637	442
0	2012	420.621832375637	443
0	2016	421.683705362035	444
0	2017	421.683705362035	445
0	2021	422.155573342793	446
0	2022	422.155573342793	447
0	2023	422.5	446
0	2029	422.707250225746	447
0	2030	422.707250225746	448
0	2034	424.538561023186	449
0	2035	424.538561023186	450
0	2039	424.812457457215	451
0	2040	424.812457457215	452
0	2041	425	451
0	2047	425.601452736392	452
0	2048	425.601452736392	453
0	2049	427.5	452
0	2055	428.968989665548	453
0	2056	428.968989665548	454
0	2060	429.725556460507	455
0	2061	429.725556460507	456
0	2065	429.83657511292	457
0	2066	429.83657511292	458
0	2067	430	457
0	2073	430.740923688798	458
0	2074	430.740923688798	459
0	2078	431.265677502016	460
0	2079	431.265677502016	461
0	2083	431.838930302636	462
0	2084	431.838930302636	463
0	2085	432.5	462
0	2091	433.474259515352	463
0	2092	433.474259515352	464
0	2096	433.960540823618	465
0	2097	433.960540823618	466
0	2101	434.626484318837	467
0	2102	434.626484318837	468
0	2103	435	467
0	2109	436.20139335366	468
0	2110	436.20139335366	469
0	2111	437.5	468
0	2117	438.108536007635	469
0	2118	438.108536007635	470
0	2122	438.437613649103	471
0	2123	438.437613649103	472
0	2127	439.060766020492	473
0	2128	439.060766020492	474
0	2132	439.219733237012	475
0	2133	439.219733237012	476
0	2134	440	475
0	2140	440.04344017989	476
0	2141	440.04344017989	477
0	2142	442.5	476
0	2148	442.981308706132	477
0	2149	442.981308706132	478
0	2153	444.482411950096	479
0	2154	444.482411950096	480
0	2155	445	479
0	2161	446.072102589601	480
0	2162	446.072102589601	481
0	2163	447.5	480
0	2169	448.1450366894	481
0	2170	448.1450366894	482
0	2174	448.531012087232	483
0	2175	448.531012087232	484
0	2176	450	483
0	2182	450.59230307146	484
0	2183	450.59230307146	485
0	2187	450.766395538347	486
0	2188	450.766395538347	487
0	2189	452.5	486
0	2195	453.489498665354	487
0	2196	453.489498665354	488
0	2197	455	487
0	2200	457.5	486
0	2206	457.595968910042	487
0	2207	457.595968910042	488
0	2208	460	487
0	2214	460.51044812919	488
0	2215	460.51044812919	489
0	2219	461.635356785012	490
0	2220	461.635356785012	491
0	2221	462.5	490
0	2227	462.741419255379	491
0	2228	462.741419255379	492
0	2229	465	491
0	2235	465.509070452019	492
0	2236	465.509070452019	493
0	2240	467.326026074723	494
0	2241	467.326026074723	495
0	2242	467.5	494
0	2248	467.662825892708	495
0	2249	467.662825892708	496
0	2253	468.443207417264	497
0	2254	468.443207417264	498
0	2258	469.053999616207	499
0	2259	469.053999616207	500
0	2260	470	499
0	2263	472.5	498
0	2269	472.802845394217	499
0	2270	472.802845394217	500
0	2274	473.817972061778	501
0	2275	473.817972061778	502
0	2279	474.551856900924	503
0	2280	474.551856900924	504
0	2284	474.982033963249	505
0	2285	474.982033963249	506
0	2286	475	505
0	2292	476.663101670977	506
0	2293	476.663101670977	507
0	2297	477.466088755181	508
0	2298	477.466088755181	509
0	2299	477.5	508
0	2305	477.614321269646	509
0	2306	477.614321269646	510
0	2310	479.075243997744	511
0	2311	479.075243997744	512
0	2312	480	511
0	2318	481.1992624077	512
0	2319	481.1992624077	513
0	2320	482.5	512
0	2326	483.052171892521	513
0	2327	483.052171892521	514
0	2328	485	513
0	2334	485.552781225182	514
0	2335	485.552781225182	515
0	2339	485.916737135136	516
0	2340	485.916737135136	517
0	2344	486.38383276415	518
0	2345	486.38383276415	519
0	2346	487.5	518
0	2352	488.445467551846	519
0	2353	488.445467551846	520
0	2357	489.353052837408	521
0	2358	489.353052837408	522
0	2359	490	521
0	2365	490.441055514701	522
0	2366	490.441055514701	523
0	2367	492.5	522
0	2373	493.783241272132	523
0	2374	493.783241272132	524
0	2375	495	523
0	2381	496.17931838637	524
0	2382	496.17931838637	525
0	2383	497.5	524
0	2389	498.535419582029	525
0	2390	498.535419582029	526
0	2394	498.980153400533	527
0	2395	498.980153400533	528
0	2396	500	527
0	2402	502.224834911347	528
0	2403	502.224834911347	529
0	2407	502.474016685768	530
0	2408	502.474016685768	531
0	2409	502.5	530
0	2415	504.275467323786	531
0	2416	504.275467323786	532
0	2420	504.586213272213	533
0	2421	504.586213272213	534
0	2422	505	533
0	2428	506.729222800735	534
0	2429	506.729222800735	535
0	2430	507.5	534
0	2436	507.584898449995	535
0	2437	507.584898449995	536
0	2441	507.93449811182	537
0	2442	507.93449811182	538
0	2443	510	537
0	2449	511.071784141261	538
0	2450	511.071784141261	539
0	2454	511.78051878373	540
0	2455	511.78051878373	541
0	2456	512.5	540
0	2462	512.690077959988	541
0	2463	512.690077959988	542
0	2467	512.769809595813	543
0	2468	512.769809595813	544
0	2472	513.598669948286	545
0	2473	513.598669948286	546
0	2477	514.086006219889	547
0	2478	514.086006219889	548
0	2479	515	547
0	2485	516.117911991609	548
0	2486	516.117911991609	549
0	2490	516.672994367542	550
0	2491	516.672994367542	551
0	2495	517.343989528977	552
0	2496	517.343989528977	553
0	2497	517.5	552
0	2503	517.714641622242	553
0	2504	517.714641622242	554
0	2508	518.687481294469	555
0	2509	518.687481294469	556
0	2513	518.865193793946	557
0	2514	518.865193793946	558
0	2515	520	557
0	2521	521.548532664403	558
0	2522	521.548532664403	559
0	2523	522.5	558
0	2529	523.407284575046	559
0	2530	523.407284575046	560
0	2534	524.396509699218	561
0	2535	524.396509699218	562
0	2536	525	561
0	2542	525.416911348747	562
0	2543	525.416911348747	563
0	2547	526.216852027446	564
0	2548	526.216852027446	565
0	2552	526.276698779963	566
0	2553	526.276698779963	567
0	2554	527.5	566
0	2560	527.568385497012	567
0	2561	527.568385497012	568
0	2565	528.612917848906	569
0	2566	528.612917848906	570
0	2570	529.405426517384	571
0	2571	529.405426517384	572
0	2575	529.640263224479	573
0	2576	529.640263224479	574
0	2577	530	573
0	2583	531.626092747596	574
0	2584	531.626092747596	575
0	2585	532.5	574
0	2591	534.120727022407	575
0	2592	534.120727022407	576
0	2593	535	575
0	2599	535.805486134701	576
0	2600	535.805486134701	577
0	2604	536.377325807369	578
0	2605	536.377325807369	579
0	2609	536.55133315576	580
0	2610	536.55133315576	581
0	2614	536.794754597967	582
0	2615	536.794754597967	583
0	2619	537.427818213822	584
0	2620	537.427818213822	585
0	2621	537.5	584
0	2627	539.213086257612	585
0	2628	539.213086257612	586
0	2629	540	585
0	2635	540.551406279299	586
0	2636	540.551406279299	587
0	2640	541.669040037779	588
0	2641	541.669040037779	589
0	2645	541.8234838673	590
0	2646	541.8234838673	591
0	2647	542.5	590
0	2653	543.798591986263	591
0	2654	543.798591986263	592
0	2655	545	591
0	2661	546.667757352431	592
0	2662	546.667757352431	593
0	2663	547.5	592
0	2669	549.623200500174	593
0	2670	549.623200500174	594
0	2671	550	593
0	2674	552.5	592
0	2680	552.865742366933	593
0	2681	552.865742366933	594
0	2685	553.025731350586	595
0	2686	553.025731350586	596
0	2687	555	595
0	2693	555.727551689477	596
0	2694	555.727551689477	597
0	2698	556.989130029055	598
0	2699	556.989130029055	599
0	2700	557.5	598
0	2706	558.466485082662	599
0	2707	558.466485082662	600
0	2711	558.683191151154	601
0	2712	558.683191151154	602
0	2713	560	601
0	2719	560.405183168759	602
0	2720	560.405183168759	603
0	2721	562.5	602
0	2727	564.845619613861	603
0	2728	564.845619613861	604
0	2729	565	603
0	2735	565.730161081075	604
0	2736	565.730161081075	605
0	2740	566.663377445501	606
0	2741	566.663377445501	607
0	2745	567.287713327385	608
0	2746	567.287713327385	609
0	2747	567.5	608
0	2753	569.883196726024	609
0	2754	569.883196726024	610
0	2755	570	609
0	2761	570.943484837794	610
0	2762	570.943484837794	611
0	2766	571.78016805545	612
0	2767	571.78016805545	613
0	2771	572.08877559839	614
0	2772	572.08877559839	615
0	2773	572.5	614
0	2779	573.768058689297	615
0	2780	573.768058689297	616
0	2781	575	615
0	2787	575.567716143217	616
0	2788	575.567716143217	617
0	2792	576.63736079309	618
0	2793	576.63736079309	619
0	2797	576.728559221922	620
0	2798	576.728559221922	621
0	2799	577.5	620
0	2805	578.522586365665	621
0	2806	578.522586365665	622
0	2810	579.247222876884	623
0	2811	579.247222876884	624
0	2812	580	623
0	2818	582.166011381363	624
0	2819	582.166011381363	625
0	2820	582.5	624
0	2826	584.856275107497	625
0	2827	584.856275107497	626
0	2828	585	625
0	2834	586.761193216575	626
0	2835	586.761193216575	627
0	2839	587.167368425764	628
0	2840	587.167368425764	629
0	2841	587.5	628
0	2847	587.723395684409	629
0	2848	587.723395684409	630
0	2852	588.821244991092	631
0	2853	588.821244991092	632
0	2857	589.829094710373	633
0	2858	589.829094710373	634
0	2859	590	633
0	2865	591.214483158311	634
0	2866	591.214483158311	635
0	2870	591.881544864276	636
0	2871	591.881544864276	637
0	2872	592.5	636
0	2878	593.262524194111	637
0	2879	593.262524194111	638
0	2883	594.631134509609	639
0	2884	594.631134509609	640
0	2885	595	639
0	2891	595.925761188585	640
0	2892	595.925761188585	641
0	2896	597.445688140112	642
0	2897	597.445688140112	643
0	2898	597.5	642
0	2904	599.357336493865	643
0	2905	599.357336493865	644
0	2906	600	643
0	2912	601.082115806442	644
0	2913	601.082115806442	645
0	2914	602.5	644
0	2920	602.794317341668	645
0	2921	602.794317341668	646
0	2925	603.930240505625	647
0	2926	603.930240505625	648
0	2927	605	647
0	2933	605.785783065782	648
0	2934	605.785783065782	649
0	2935	607.5	648
0	2941	607.849166668383	649
0	2942	607.849166668383	650
0	2946	608.989080360703	651
0	2947	608.989080360703	652
0	2948	610	651
0	2954	610.247405019868	652
0	2955	610.247405019868	653
0	2959	610.767031554654	654
0	2960	610.767031554654	655
0	2964	610.821406208864	656
0	2965	610.821406208864	657
0	2969	611.306019042342	658
0	2970	611.306019042342	659
0	2974	611.364253590636	660
0	2975	611.364253590636	661
0	2979	611.399564468028	662
0	2980	611.399564468028	663
0	2984	612.199012943037	664
0	2985	612.199012943037	665
0	2986	612.5	664
0	2992	613.735413692009	665
0	2993	613.735413692009	666
0	2994	615	665
0	3000	616.34367860029	666
0	3001	616.34367860029	667
0	3005	616.729263811306	668
0	3006	616.729263811306	669
0	3010	616.783851504971	670
0	3011	616.783851504971	671
0	3015	616.849931607734	672
0	3016	616.849931607734	673
0	3020	617.263657583603	674
0	3021	617.263657583603	675