version 3
run k_MM1_rand-26-20221127-16:03:21-5740
attr configname k_MM1_rand
attr datetime 20221127-16:03:21
attr datetimef 20221127-160321
attr experiment k_MM1_rand
attr inifile omnetpp.ini
attr iterationvars "$time=2.5, $num=1, $0=47853, $1=24674, $2=96433"
attr iterationvarsd time=2.5/num=1/47853/24674/96433
attr iterationvarsf time=2.5,num=1,47853,24674,96433-
attr measurement "$time=2.5, $num=1, $0=47853, $1=24674, $2=96433"
attr network randkMM1
attr processid 5740
attr repetition 2
attr replication #2
attr resultdir results
attr runnumber 26
attr seedset 26
itervar num 1
itervar time 2.5
config description "MM1 module k-times random"
config network randkMM1
config **.source.interArrivalTime "truncnormal(0.5s, 1.5s)"
config **.serviceTime 2.5s
config **.c 1
config **.capacity 10000
config record-eventlog false
config **.scalar-recording true
config **.vector-recording true
config repeat 4
config seed-1-mt 47853
config seed-2-mt 24674
config seed-3-mt 96433
config output-vector-file k_MM1_rand-1-2.5-results/2.vec
config output-scalar-file k_MM1_rand-1-2.5-results/2.sca

vector 0 randkMM1.mm1[0] queueLength:vector ETV
attr interpolationmode none
attr recordingmode vector
attr title "queue length"
vector 1 randkMM1.mm1[0] util:vector ETV
attr interpolationmode none
attr recordingmode vector
attr title resources
0	5	10	1
0	9	10.204366868755	2
0	10	10.204366868755	3
0	11	12.5	2
0	17	12.852210895013	3
0	18	12.852210895013	4
0	19	15	3
0	25	15.707485046687	4
0	26	15.707485046687	5
0	30	16.352203805414	6
0	31	16.352203805414	7
0	35	16.858065076624	8
0	36	16.858065076624	9
0	37	17.5	8
0	43	18.054068935063	9
0	44	18.054068935063	10
0	48	18.98748441292	11
0	49	18.98748441292	12
0	50	20	11
0	56	20.709093181483	12
0	57	20.709093181483	13
0	61	22.102914901664	14
0	62	22.102914901664	15
0	63	22.5	14
0	69	24.165519973423	15
0	70	24.165519973423	16
0	71	25	15
0	74	27.5	14
0	80	27.89879664618	15
0	81	27.89879664618	16
0	85	29.610536899372	17
0	86	29.610536899372	18
0	90	29.740999415849	19
0	91	29.740999415849	20
0	92	30	19
0	98	30.075260893504	20
0	99	30.075260893504	21
0	103	32.025263860998	22
0	104	32.025263860998	23
0	105	32.5	22
0	111	33.159742659317	23
0	112	33.159742659317	24
0	113	35	23
0	119	35.433245082502	24
0	120	35.433245082502	25
0	124	36.286574225485	26
0	125	36.286574225485	27
0	126	37.5	26
0	132	37.869233077964	27
0	133	37.869233077964	28
0	137	38.48470866226	29
0	138	38.48470866226	30
0	142	38.511020048137	31
0	143	38.511020048137	32
0	144	40	31
0	150	40.198092652241	32
0	151	40.198092652241	33
0	155	41.214590155419	34
0	156	41.214590155419	35
0	160	41.402200485449	36
0	161	41.402200485449	37
0	162	42.5	36
0	168	43.31766682518	37
0	169	43.31766682518	38
0	173	44.800557109091	39
0	174	44.800557109091	40
0	178	44.844052911368	41
0	179	44.844052911368	42
0	180	45	41
0	183	47.5	40
0	189	49.002946761686	41
0	190	49.002946761686	42
0	191	50	41
0	194	52.5	40
0	200	52.585356739384	41
0	201	52.585356739384	42
0	205	52.716819099678	43
0	206	52.716819099678	44
0	210	53.330112323104	45
0	211	53.330112323104	46
0	215	54.675270878645	47
0	216	54.675270878645	48
0	217	55	47
0	220	57.5	46
0	226	57.518702349872	47
0	227	57.518702349872	48
0	231	58.628223074713	49
0	232	58.628223074713	50
0	236	59.4309730572	51
0	237	59.4309730572	52
0	238	60	51
0	244	61.563938675564	52
0	245	61.563938675564	53
0	246	62.5	52
0	252	64.517050315965	53
0	253	64.517050315965	54
0	254	65	53
0	260	65.014547010083	54
0	261	65.014547010083	55
0	265	65.072148704386	56
0	266	65.072148704386	57
0	270	66.350350852409	58
0	271	66.350350852409	59
0	275	66.433996898144	60
0	276	66.433996898144	61
0	280	67.237352794989	62
0	281	67.237352794989	63
0	282	67.5	62
0	288	69.190732950414	63
0	289	69.190732950414	64
0	293	69.956723424557	65
0	294	69.956723424557	66
0	295	70	65
0	298	72.5	64
0	304	73.502619682732	65
0	305	73.502619682732	66
0	309	73.627785008491	67
0	310	73.627785008491	68
0	314	74.351478512936	69
0	315	74.351478512936	70
0	316	75	69
0	322	75.101965921053	70
0	323	75.101965921053	71
0	327	75.832646253481	72
0	328	75.832646253481	73
0	332	76.828463583185	74
0	333	76.828463583185	75
0	334	77.5	74
0	340	77.98755915593	75
0	341	77.98755915593	76
0	345	78.052686538825	77
0	346	78.052686538825	78
0	347	80	77
0	353	80.230934789427	78
0	354	80.230934789427	79
0	358	80.398751316726	80
0	359	80.398751316726	81
0	363	80.937021416162	82
0	364	80.937021416162	83
0	365	82.5	82
0	371	83.561708244862	83
0	372	83.561708244862	84
0	376	83.927570976486	85
0	377	83.927570976486	86
0	381	83.938694623408	87
0	382	83.938694623408	88
0	386	83.971468692791	89
0	387	83.971468692791	90
0	388	85	89
0	394	86.451656648901	90
0	395	86.451656648901	91
0	399	86.713239455698	92
0	400	86.713239455698	93
0	404	87.113124554685	94
0	405	87.113124554685	95
0	409	87.412523753937	96
0	410	87.412523753937	97
0	411	87.5	96
0	417	87.74468401889	97
0	418	87.74468401889	98
0	422	88.309399677997	99
0	423	88.309399677997	100
0	427	88.723902318621	101
0	428	88.723902318621	102
0	429	90	101
0	435	90.217968885597	102
0	436	90.217968885597	103
0	440	90.307361545283	104
0	441	90.307361545283	105
0	445	90.97394478994	106
0	446	90.97394478994	107
0	447	92.5	106
0	453	92.644326572976	107
0	454	92.644326572976	108
0	458	93.296612443621	109
0	459	93.296612443621	110
0	460	95	109
0	466	97.011912673747	110
0	467	97.011912673747	111
0	468	97.5	110
0	474	98.270761606961	111
0	475	98.270761606961	112
0	479	98.705479680603	113
0	480	98.705479680603	114
0	484	99.786909366495	115
0	485	99.786909366495	116
0	486	100	115
0	492	101.801216005734	116
0	493	101.801216005734	117
0	497	102.129513418777	118
0	498	102.129513418777	119
0	499	102.5	118
0	502	105	117
0	508	105.690007605049	118
0	509	105.690007605049	119
0	513	106.461122564367	120
0	514	106.461122564367	121
0	515	107.5	120
0	521	107.648651151824	121
0	522	107.648651151824	122
0	526	108.790229494993	123
0	527	108.790229494993	124
0	531	109.125499972056	125
0	532	109.125499972056	126
0	533	110	125
0	539	111.176070364188	126
0	540	111.176070364188	127
0	541	112.5	126
0	547	112.757865943105	127
0	548	112.757865943105	128
0	552	113.177092436667	129
0	553	113.177092436667	130
0	557	114.694069353203	131
0	558	114.694069353203	132
0	559	115	131
0	565	116.672191178531	132
0	566	116.672191178531	133
0	570	116.778931542221	134
0	571	116.778931542221	135
0	572	117.5	134
0	578	117.778476179513	135
0	579	117.778476179513	136
0	583	118.935492381327	137
0	584	118.935492381327	138
0	588	119.355532487463	139
0	589	119.355532487463	140
0	590	120	139
0	596	121.05329878283	140
0	597	121.05329878283	141
0	601	122.383291668443	142
0	602	122.383291668443	143
0	603	122.5	142
0	609	122.991266046721	143
0	610	122.991266046721	144
0	614	124.53701805272	145
0	615	124.53701805272	146
0	616	125	145
0	622	125.029522869959	146
0	623	125.029522869959	147
0	627	127.471352511941	148
0	628	127.471352511941	149
0	629	127.5	148
0	635	128.496008916796	149
0	636	128.496008916796	150
0	637	130	149
0	643	130.867901420256	150
0	644	130.867901420256	151
0	648	131.062257388641	152
0	649	131.062257388641	153
0	653	131.771606610165	154
0	654	131.771606610165	155
0	655	132.5	154
0	661	133.538379780025	155
0	662	133.538379780025	156
0	663	135	155
0	669	135.270011556657	156
0	670	135.270011556657	157
0	671	137.5	156
0	677	137.693936445292	157
0	678	137.693936445292	158
0	682	138.209497979693	159
0	683	138.209497979693	160
0	684	140	159
0	690	140.337116761988	160
0	691	140.337116761988	161
0	695	141.291886906356	162
0	696	141.291886906356	163
0	697	142.5	162
0	703	142.684449347875	163
0	704	142.684449347875	164
0	708	142.827365103443	165
0	709	142.827365103443	166
0	713	143.546715010364	167
0	714	143.546715010364	168
0	718	144.846330488339	169
0	719	144.846330488339	170
0	723	144.868089434838	171
0	724	144.868089434838	172
0	725	145	171
0	731	146.887905394251	172
0	732	146.887905394251	173
0	733	147.5	172
0	739	148.757760237208	173
0	740	148.757760237208	174
0	741	150	173
0	747	151.345259118355	174
0	748	151.345259118355	175
0	749	152.5	174
0	755	153.104564441407	175
0	756	153.104564441407	176
0	760	153.510877231252	177
0	761	153.510877231252	178
0	765	154.955470036293	179
0	766	154.955470036293	180
0	770	154.974455276707	181
0	771	154.974455276707	182
0	772	155	181
0	778	156.298822824011	182
0	779	156.298822824011	183
0	780	157.5	182
0	786	158.5890107157	183
0	787	158.5890107157	184
0	791	159.861677287671	185
0	792	159.861677287671	186
0	793	160	185
0	799	160.788370575199	186
0	800	160.788370575199	187
0	804	162.065001782932	188
0	805	162.065001782932	189
0	806	162.5	188
0	812	164.765087496572	189
0	813	164.765087496572	190
0	814	165	189
0	820	166.014528533636	190
0	821	166.014528533636	191
0	822	167.5	190
0	828	167.671433306689	191
0	829	167.671433306689	192
0	833	169.569112507061	193
0	834	169.569112507061	194
0	835	170	193
0	838	172.5	192
0	844	172.7123587072	193
0	845	172.7123587072	194
0	849	174.011473110863	195
0	850	174.011473110863	196
0	854	174.568533826584	197
0	855	174.568533826584	198
0	856	175	197
0	862	176.874103755427	198
0	863	176.874103755427	199
0	864	177.5	198
0	870	177.694774737064	199
0	871	177.694774737064	200
0	875	177.885820978326	201
0	876	177.885820978326	202
0	880	178.753546245104	203
0	881	178.753546245104	204
0	882	180	203
0	888	180.648168385119	204
0	889	180.648168385119	205
0	893	181.638912112398	206
0	894	181.638912112398	207
0	898	182.240646678655	208
0	899	182.240646678655	209
0	900	182.5	208
0	906	183.276518977263	209
0	907	183.276518977263	210
0	911	183.335665178093	211
0	912	183.335665178093	212
0	913	185	211
0	919	185.322894115322	212
0	920	185.322894115322	213
0	924	185.907947452739	214
0	925	185.907947452739	215
0	926	187.5	214
0	932	188.78359292088	215
0	933	188.78359292088	216
0	937	189.476729623072	217
0	938	189.476729623072	218
0	939	190	217
0	945	190.60567829752	218
0	946	190.60567829752	219
0	950	192.283601153879	220
0	951	192.283601153879	221
0	952	192.5	220
0	958	193.603052793312	221
0	959	193.603052793312	222
0	963	193.957754992074	223
0	964	193.957754992074	224
0	968	193.972016202289	225
0	969	193.972016202289	226
0	970	195	225
0	976	196.105994474251	226
0	977	196.105994474251	227
0	978	197.5	226
0	984	197.592352723339	227
0	985	197.592352723339	228
0	989	197.616480405933	229
0	990	197.616480405933	230
0	994	199.894059190918	231
0	995	199.894059190918	232
0	996	200	231
0	1002	200.386785489145	232
0	1003	200.386785489145	233
0	1007	201.773581927647	234
0	1008	201.773581927647	235
0	1009	202.5	234
0	1012	205	233
0	1018	205.193859587219	234
0	1019	205.193859587219	235
0	1023	205.982549008406	236
0	1024	205.982549008406	237
0	1025	207.5	236
0	1031	209.312294821987	237
0	1032	209.312294821987	238
0	1033	210	237
0	1039	210.478965570429	238
0	1040	210.478965570429	239
0	1044	211.392732419832	240
0	1045	211.392732419832	241
0	1049	211.451468198995	242
0	1050	211.451468198995	243
0	1054	211.749414768876	244
0	1055	211.749414768876	245
0	1059	212.027761560284	246
0	1060	212.027761560284	247
0	1061	212.5	246
0	1067	212.764315423697	247
0	1068	212.764315423697	248
0	1072	213.04573066175	249
0	1073	213.04573066175	250
0	1077	213.741166205947	251
0	1078	213.741166205947	252
0	1082	214.658456826273	253
0	1083	214.658456826273	254
0	1084	215	253
0	1090	215.282803550633	254
0	1091	215.282803550633	255
0	1095	215.452657247959	256
0	1096	215.452657247959	257
0	1100	215.578541745104	258
0	1101	215.578541745104	259
0	1105	216.57515723315	260
0	1106	216.57515723315	261
0	1107	217.5	260
0	1113	218.112273399507	261
0	1114	218.112273399507	262
0	1118	218.127033340541	263
0	1119	218.127033340541	264
0	1123	219.117293773176	265
0	1124	219.117293773176	266
0	1125	220	265
0	1131	221.296901636047	266
0	1132	221.296901636047	267
0	1133	222.5	266
0	1139	224.254453642234	267
0	1140	224.254453642234	268
0	1141	225	267
0	1147	225.043276703543	268
0	1148	225.043276703543	269
0	1149	227.5	268
0	1155	227.556623009817	269
0	1156	227.556623009817	270
0	1157	230	269
0	1163	230.209201203283	270
0	1164	230.209201203283	271
0	1168	230.596890553855	272
0	1169	230.596890553855	273
0	1173	231.754731883537	274
0	1174	231.754731883537	275
0	1175	232.5	274
0	1181	233.561905645917	275
0	1182	233.561905645917	276
0	1186	234.119653221029	277
0	1187	234.119653221029	278
0	1188	235	277
0	1194	235.032324723444	278
0	1195	235.032324723444	279
0	1196	237.5	278
0	1202	238.882044541395	279
0	1203	238.882044541395	280
0	1204	240	279
0	1210	241.040740809646	280
0	1211	241.040740809646	281
0	1212	242.5	280
0	1218	242.748568588779	281
0	1219	242.748568588779	282
0	1220	245	281
0	1226	245.116747868031	282
0	1227	245.116747868031	283
0	1231	245.17113149619	284
0	1232	245.17113149619	285
0	1233	247.5	284
0	1239	247.649836701316	285
0	1240	247.649836701316	286
0	1244	249.254000785511	287
0	1245	249.254000785511	288
0	1246	250	287
0	1252	250.387948165143	288
0	1253	250.387948165143	289
0	1254	252.5	288
0	1260	252.517884548932	289
0	1261	252.517884548932	290
0	1265	253.709717282744	291
0	1266	253.709717282744	292
0	1270	253.931077238788	293
0	1271	253.931077238788	294
0	1272	255	293
0	1278	255.151588981523	294
0	1279	255.151588981523	295
0	1280	257.5	294
0	1286	258.400727937631	295
0	1287	258.400727937631	296
0	1291	259.183566075081	297
0	1292	259.183566075081	298
0	1296	259.34590563106	299
0	1297	259.34590563106	300
0	1298	260	299
0	1301	262.5	298
0	1307	264.178129621961	299
0	1308	264.178129621961	300
0	1309	265	299
0	1312	267.5	298
0	1318	267.979768209815	299
0	1319	267.979768209815	300
0	1323	268.033213100579	301
0	1324	268.033213100579	302
0	1328	269.63356926938	303
0	1329	269.63356926938	304
0	1330	270	303
0	1336	270.273049432005	304
0	1337	270.273049432005	305
0	1341	270.727843840702	306
0	1342	270.727843840702	307
0	1343	272.5	306
0	1349	273.361603687384	307
0	1350	273.361603687384	308
0	1354	274.697529434989	309
0	1355	274.697529434989	310
0	1356	275	309
0	1362	275.765723825358	310
0	1363	275.765723825358	311
0	1367	276.771347263797	312
0	1368	276.771347263797	313
0	1369	277.5	312
0	1375	279.640922380799	313
0	1376	279.640922380799	314
0	1377	280	313
0	1383	281.577439236189	314
0	1384	281.577439236189	315
0	1388	282.347636653062	316
0	1389	282.347636653062	317
0	1390	282.5	316
0	1396	283.096899543379	317
0	1397	283.096899543379	318
0	1398	285	317
0	1404	285.686851443842	318
0	1405	285.686851443842	319
0	1406	287.5	318
0	1412	288.039761190579	319
0	1413	288.039761190579	320
0	1417	288.308676659417	321
0	1418	288.308676659417	322
0	1422	289.384855224975	323
0	1423	289.384855224975	324
0	1424	290	323
0	1430	291.381242001804	324
0	1431	291.381242001804	325
0	1435	292.408953012742	326
0	1436	292.408953012742	327
0	1437	292.5	326
0	1443	293.736809286707	327
0	1444	293.736809286707	328
0	1448	294.9435206744	329
0	1449	294.9435206744	330
0	1450	295	329
0	1453	297.5	328
0	1459	297.746240525595	329
0	1460	297.746240525595	330
0	1464	298.661788629668	331
0	1465	298.661788629668	332
0	1469	298.889370004697	333
0	1470	298.889370004697	334
0	1471	300	333
0	1477	301.119313658308	334
0	1478	301.119313658308	335
0	1482	301.129995276611	336
0	1483	301.129995276611	337
0	1487	302.45495828035	338
0	1488	302.45495828035	339
0	1489	302.5	338
0	1495	302.872671057909	339
0	1496	302.872671057909	340
0	1497	305	339
0	1503	305.271106713338	340
0	1504	305.271106713338	341
0	1508	305.927771378242	342
0	1509	305.927771378242	343
0	1510	307.5	342
0	1516	309.29656936733	343
0	1517	309.29656936733	344
0	1521	309.76531581473	345
0	1522	309.76531581473	346
0	1523	310	345
0	1529	311.319254391995	346
0	1530	311.319254391995	347
0	1531	312.5	346
0	1537	313.477023385908	347
0	1538	313.477023385908	348
0	1542	313.623257631993	349
0	1543	313.623257631993	350
0	1547	314.320787117508	351
0	1548	314.320787117508	352
0	1549	315	351
0	1555	316.104848080545	352
0	1556	316.104848080545	353
0	1560	316.637673125943	354
0	1561	316.637673125943	355
0	1565	317.110546532614	356
0	1566	317.110546532614	357
0	1570	317.132951748961	358
0	1571	317.132951748961	359
0	1572	317.5	358
0	1578	319.19600621157	359
0	1579	319.19600621157	360
0	1583	319.936378600378	361
0	1584	319.936378600378	362
0	1585	320	361
0	1591	321.669130246625	362
0	1592	321.669130246625	363
0	1593	322.5	362
0	1599	322.614274361543	363
0	1600	322.614274361543	364
0	1604	323.59318649462	365
0	1605	323.59318649462	366
0	1609	324.795171897523	367
0	1610	324.795171897523	368
0	1611	325	367
0	1617	325.977263183708	368
0	1618	325.977263183708	369
0	1619	327.5	368
0	1625	328.025838218075	369
0	1626	328.025838218075	370
0	1630	328.861839312166	371
0	1631	328.861839312166	372
0	1632	330	371
0	1638	331.348496041472	372
0	1639	331.348496041472	373
0	1640	332.5	372
0	1646	333.191404991897	373
0	1647	333.191404991897	374
0	1648	335	373
0	1654	335.86551082293	374
0	1655	335.86551082293	375
0	1659	336.286233716505	376
0	1660	336.286233716505	377
0	1664	337.239863774791	378
0	1665	337.239863774791	379
0	1666	337.5	378
0	1672	338.015614818107	379
0	1673	338.015614818107	380
0	1677	339.88300614126	381
0	1678	339.88300614126	382
0	1679	340	381
0	1685	340.6642367565	382
0	1686	340.6642367565	383
0	1690	340.959002870497	384
0	1691	340.959002870497	385
0	1695	340.995558302568	386
0	1696	340.995558302568	387
0	1700	341.66068248461	388
0	1701	341.66068248461	389
0	1702	342.5	388
0	1708	342.762263952785	389
0	1709	342.762263952785	390
0	1713	344.205978874568	391
0	1714	344.205978874568	392
0	1715	345	391
0	1721	345.132010119454	392
0	1722	345.132010119454	393
0	1726	346.67290332422	394
0	1727	346.67290332422	395
0	1728	347.5	394
0	1734	347.590504164685	395
0	1735	347.590504164685	396
0	1739	348.295859878532	397
0	1740	348.295859878532	398
0	1744	349.100936501337	399
0	1745	349.100936501337	400
0	1746	350	399
0	1752	350.18929143951	400
0	1753	350.18929143951	401
0	1757	350.244986380918	402
0	1758	350.244986380918	403
0	1762	351.370339766382	404
0	1763	351.370339766382	405
0	1764	352.5	404
0	1770	352.578567729918	405
0	1771	352.578567729918	406
0	1775	353.532611551955	407
0	1776	353.532611551955	408
0	1777	355	407
0	1783	356.528022701492	408
0	1784	356.528022701492	409
0	1785	357.5	408
0	1791	357.956029010505	409
0	1792	357.956029010505	410
0	1796	359.341309148235	411
0	1797	359.341309148235	412
0	1798	360	411
0	1804	361.428566424379	412
0	1805	361.428566424379	413
0	1809	362.305834547163	414
0	1810	362.305834547163	415
0	1811	362.5	414
0	1814	365	413
0	1820	366.979122369195	414
0	1821	366.979122369195	415
0	1822	367.5	414
0	1828	369.713739985928	415
0	1829	369.713739985928	416
0	1830	370	415
0	1836	371.510831186268	416
0	1837	371.510831186268	417
0	1838	372.5	416
0	1844	373.333187483585	417
0	1845	373.333187483585	418
0	1846	375	417
0	1852	375.189415283819	418
0	1853	375.189415283819	419
0	1857	376.247081172605	420
0	1858	376.247081172605	421
0	1859	377.5	420
0	1865	378.193176925612	421
0	1866	378.193176925612	422
0	1867	380	421
0	1873	380.942642741712	422
0	1874	380.942642741712	423
0	1875	382.5	422
0	1881	382.524990039078	423
0	1882	382.524990039078	424
0	1883	385	423
0	1889	386.169483754285	424
0	1890	386.169483754285	425
0	1894	386.953417482762	426
0	1895	386.953417482762	427
0	1896	387.5	426
0	1902	387.935909256368	427
0	1903	387.935909256368	428
0	1907	389.644962036478	429
0	1908	389.644962036478	430
0	1909	390	429
0	1915	391.05588147209	430
0	1916	391.05588147209	431
0	1920	391.256134366288	432
0	1921	391.256134366288	433
0	1922	392.5	432
0	1928	392.655490403665	433
0	1929	392.655490403665	434
0	1933	394.452319674846	435
0	1934	394.452319674846	436
0	1938	394.45653960533	437
0	1939	394.45653960533	438
0	1940	395	437
0	1946	395.049333645648	438
0	1947	395.049333645648	439
0	1951	395.666941841037	440
0	1952	395.666941841037	441
0	1956	395.722283392701	442
0	1957	395.722283392701	443
0	1961	396.490226615884	444
0	1962	396.490226615884	445
0	1963	397.5	444
0	1966	400	443
0	1972	400.332741514538	444
0	1973	400.332741514538	445
0	1977	402.492957585194	446
0	1978	402.492957585194	447
0	1979	402.5	446
0	1985	403.569893475473	447
0	1986	403.569893475473	448
0	1990	404.715968856069	449
0	1991	404.715968856069	450
0	1992	405	449
0	1995	407.5	448
0	2001	408.023437257537	449
0	2002	408.023437257537	450
0	2003	410	449
0	2009	410.239143375612	450
0	2010	410.239143375612	451
0	2014	411.710747738102	452
0	2015	411.710747738102	453
0	2019	412.440619561885	454
0	2020	412.440619561885	455
0	2021	412.5	454
0	2027	412.961529815581	455
0	2028	412.961529815581	456
0	2032	413.643577585246	457
0	2033	413.643577585246	458
0	2037	414.288252130619	459
0	2038	414.288252130619	460
0	2039	415	459
0	2045	415.135958779008	460
0	2046	415.135958779008	461
0	2050	415.643249065067	462
0	2051	415.643249065067	463
0	2055	416.490374749812	464
0	2056	416.490374749812	465
0	2057	417.5	464
0	2063	417.977934570876	465
0	2064	417.977934570876	466
0	2065	420	465
0	2071	421.750921020816	466
0	2072	421.750921020816	467
0	2073	422.5	466
0	2079	422.836974956855	467
0	2080	422.836974956855	468
0	2084	424.884814963938	469
0	2085	424.884814963938	470
0	2086	425	469
0	2092	426.719028164396	470
0	2093	426.719028164396	471
0	2094	427.5	470
0	2100	428.478045371813	471
0	2101	428.478045371813	472
0	2105	428.896484793821	473
0	2106	428.896484793821	474
0	2107	430	473
0	2113	430.443436184655	474
0	2114	430.443436184655	475
0	2118	431.657315781471	476
0	2119	431.657315781471	477
0	2123	432.40772010344	478
0	2124	432.40772010344	479
0	2125	432.5	478
0	2131	434.67045579356	479
0	2132	434.67045579356	480
0	2133	435	479
0	2139	436.556978916146	480
0	2140	436.556978916146	481
0	2144	437.172752186751	482
0	2145	437.172752186751	483
0	2146	437.5	482
0	2152	438.181739183483	483
0	2153	438.181739183483	484
0	2154	440	483
0	2160	441.446813309148	484
0	2161	441.446813309148	485
0	2162	442.5	484
0	2165	445	483
0	2171	445.414467433987	484
0	2172	445.414467433987	485
0	2176	446.228301054459	486
0	2177	446.228301054459	487
0	2178	447.5	486
0	2184	448.583096623129	487
0	2185	448.583096623129	488
0	2186	450	487
0	2192	450.931789680398	488
0	2193	450.931789680398	489
0	2197	451.057219242726	490
0	2198	451.057219242726	491
0	2199	452.5	490
0	2205	452.655727372309	491
0	2206	452.655727372309	492
0	2210	452.757379553749	493
0	2211	452.757379553749	494
0	2215	452.872237537819	495
0	2216	452.872237537819	496
0	2220	454.66114013086	497
0	2221	454.66114013086	498
0	2222	455	497
0	2228	455.567332295139	498
0	2229	455.567332295139	499
0	2233	456.585711914437	500
0	2234	456.585711914437	501
0	2235	457.5	500
0	2241	458.816334291558	501
0	2242	458.816334291558	502
0	2246	458.838190592693	503
0	2247	458.838190592693	504
0	2248	460	503
0	2251	462.5	502
0	2257	462.864107961283	503
0	2258	462.864107961283	504
0	2262	464.282192520833	505
0	2263	464.282192520833	506
0	2264	465	505
0	2270	465.478388343604	506
0	2271	465.478388343604	507
0	2272	467.5	506
0	2278	467.570351975344	507
0	2279	467.570351975344	508
0	2283	468.687408223594	509
0	2284	468.687408223594	510
0	2288	469.672050204544	511
0	2289	469.672050204544	512
0	2290	470	511
0	2296	471.563422221725	512
0	2297	471.563422221725	513
0	2298	472.5	512
0	2304	472.787135705735	513
0	2305	472.787135705735	514
0	2309	473.352351604883	515
0	2310	473.352351604883	516
0	2314	473.418473838488	517
0	2315	473.418473838488	518
0	2316	475	517
0	2322	475.226114292253	518
0	2323	475.226114292253	519
0	2324	477.5	518
0	2330	478.003773812109	519
0	2331	478.003773812109	520
0	2332	480	519
0	2338	480.560339159597	520
0	2339	480.560339159597	521
0	2343	481.147188040406	522
0	2344	481.147188040406	523
0	2345	482.5	522
0	2351	482.745739959886	523
0	2352	482.745739959886	524
0	2356	483.429766788844	525
0	2357	483.429766788844	526
0	2361	483.827038983576	527
0	2362	483.827038983576	528
0	2363	485	527
0	2369	485.800842573886	528
0	2370	485.800842573886	529
0	2374	486.069626798723	530
0	2375	486.069626798723	531
0	2379	487.495546034381	532
0	2380	487.495546034381	533
0	2381	487.5	532
0	2384	490	531
0	2390	490.616839006014	532
0	2391	490.616839006014	533
0	2395	492.193320521528	534
0	2396	492.193320521528	535
0	2397	492.5	534
0	2403	493.238273847374	535
0	2404	493.238273847374	536
0	2405	495	535
0	2411	497.295026124388	536
0	2412	497.295026124388	537
0	2413	497.5	536
0	2419	498.705512916936	537
0	2420	498.705512916936	538
0	2421	500	537
0	2427	500.961023621266	538
0	2428	500.961023621266	539
0	2432	502.485297710881	540
0	2433	502.485297710881	541
0	2434	502.5	540
0	2440	502.684980896422	541
0	2441	502.684980896422	542
0	2445	503.91468408953	543
0	2446	503.91468408953	544
0	2447	505	543
0	2453	505.989896162992	544
0	2454	505.989896162992	545
0	2458	507.029094067351	546
0	2459	507.029094067351	547
0	2460	507.5	546
0	2466	508.899059868716	547
0	2467	508.899059868716	548
0	2468	510	547
0	2474	510.778993732903	548
0	2475	510.778993732903	549
0	2479	512.420426296997	550
0	2480	512.420426296997	551
0	2481	512.5	550
0	2487	514.23583494095	551
0	2488	514.23583494095	552
0	2489	515	551
0	2495	515.451284892046	552
0	2496	515.451284892046	553
0	2500	516.862079131623	554
0	2501	516.862079131623	555
0	2502	517.5	554
0	2508	519.04462190323	555
0	2509	519.04462190323	556
0	2510	520	555
0	2516	521.816854158463	556
0	2517	521.816854158463	557
0	2518	522.5	556
0	2524	524.336327307425	557
0	2525	524.336327307425	558
0	2529	524.432166015472	559
0	2530	524.432166015472	560
0	2531	525	559
0	2537	526.253454333224	560
0	2538	526.253454333224	561
0	2542	526.331613291014	562
0	2543	526.331613291014	563
0	2547	527.063848572944	564
0	2548	527.063848572944	565
0	2549	527.5	564
0	2555	527.777366642792	565
0	2556	527.777366642792	566
0	2560	528.35331477336	567
0	2561	528.35331477336	568
0	2565	529.788460530889	569
0	2566	529.788460530889	570
0	2567	530	569
0	2573	530.540336239764	570
0	2574	530.540336239764	571
0	2575	532.5	570
0	2581	532.787039444337	571
0	2582	532.787039444337	572
0	2586	533.050707668215	573
0	2587	533.050707668215	574
0	2591	533.887382527911	575
0	2592	533.887382527911	576
0	2596	533.975846947716	577
0	2597	533.975846947716	578
0	2601	534.237810770313	579
0	2602	534.237810770313	580
0	2606	534.489706753426	581
0	2607	534.489706753426	582
0	2608	535	581
0	2614	535.783944911009	582
0	2615	535.783944911009	583
0	2616	537.5	582
0	2622	537.898078746776	583
0	2623	537.898078746776	584
0	2627	538.188364380074	585
0	2628	538.188364380074	586
0	2629	540	585
0	2635	540.272480835392	586
0	2636	540.272480835392	587
0	2640	541.63060880897	588
0	2641	541.63060880897	589
0	2642	542.5	588
0	2648	543.013837461154	589
0	2649	543.013837461154	590
0	2653	543.116634865033	591
0	2654	543.116634865033	592
0	2655	545	591
0	2661	546.499790508856	592
0	2662	546.499790508856	593
0	2666	547.049909291836	594
0	2667	547.049909291836	595
0	2668	547.5	594
0	2674	547.740946303416	595
0	2675	547.740946303416	596
0	2679	549.012915881508	597
0	2680	549.012915881508	598
0	2684	549.456619680506	599
0	2685	549.456619680506	600
0	2686	550	599
0	2692	551.134036204464	600
0	2693	551.134036204464	601
0	2697	551.203475996201	602
0	2698	551.203475996201	603
0	2702	551.367206163445	604
0	2703	551.367206163445	605
0	2704	552.5	604
0	2710	553.799903135881	605
0	2711	553.799903135881	606
0	2712	555	605
0	2718	555.146863576421	606
0	2719	555.146863576421	607
0	2720	557.5	606
0	2726	558.305279775866	607
0	2727	558.305279775866	608
0	2728	560	607
0	2734	561.129655193525	608
0	2735	561.129655193525	609
0	2739	561.353987057359	610
0	2740	561.353987057359	611
0	2741	562.5	610
0	2747	563.496054380778	611
0	2748	563.496054380778	612
0	2752	564.266605229488	613
0	2753	564.266605229488	614
0	2754	565	613
0	2760	566.320682460184	614
0	2761	566.320682460184	615
0	2762	567.5	614
0	2768	568.631647942345	615
0	2769	568.631647942345	616
0	2773	569.898368086245	617
0	2774	569.898368086245	618
0	2775	570	617
0	2781	570.415649863062	618
0	2782	570.415649863062	619
0	2786	570.752823950819	620
0	2787	570.752823950819	621
0	2791	570.80098018666	622
0	2792	570.80098018666	623
0	2793	572.5	622
0	2799	573.648300063201	623
0	2800	573.648300063201	624
0	2801	575	623
0	2807	575.345273698757	624
0	2808	575.345273698757	625
0	2809	577.5	624
0	2815	577.856013592711	625
0	2816	577.856013592711	626
0	2820	579.811158696903	627
0	2821	579.811158696903	628
0	2822	580	627
0	2828	581.078899553598	628
0	2829	581.078899553598	629
0	2830	582.5	628
0	2836	582.539433252875	629
0	2837	582.539433252875	630
0	2838	585	629
0	2844	586.727265925776	630
0	2845	586.727265925776	631
0	2849	587.031414207003	632
0	2850	587.031414207003	633
0	2851	587.5	632
0	2857	587.780534193608	633
0	2858	587.780534193608	634
0	2859	590	633
0	2865	590.618618433385	634
0	2866	590.618618433385	635
0	2870	592.391386513234	636
0	2871	592.391386513234	637
0	2872	592.5	636
0	2878	592.679805626536	637
0	2879	592.679805626536	638
0	2883	594.065765090963	639
0	2884	594.065765090963	640
0	2885	595	639
0	2891	595.441742911635	640
0	2892	595.441742911635	641
0	2896	595.615586686674	642
0	2897	595.615586686674	643
0	2901	595.652839490738	644
0	2902	595.652839490738	645
0	2906	596.898068502236	646
0	2907	596.898068502236	647
0	2908	597.5	646
0	2914	598.424767705942	647
0	2915	598.424767705942	648
0	2916	600	647
0	2922	601.596440311616	648
0	2923	601.596440311616	649
0	2927	602.216112098397	650
0	2928	602.216112098397	651
0	2929	602.5	650
0	2935	604.139611865142	651
0	2936	604.139611865142	652
0	2940	604.41127509369	653
0	2941	604.41127509369	654
0	2942	605	653
0	2948	605.649919194541	654
0	2949	605.649919194541	655
0	2950	607.5	654
0	2956	607.639642620114	655
0	2957	607.639642620114	656
0	2958	610	655
0	2964	610.997022859549	656
0	2965	610.997022859549	657
0	2969	612.124668740269	658
0	2970	612.124668740269	659
0	2974	612.174402404466	660
0	2975	612.174402404466	661
0	2976	612.5	660
0	2982	613.719051204522	661
0	2983	613.719051204522	662
0	2987	614.46034156216	663
0	2988	614.46034156216	664
0	2992	614.656451680819	665
0	2993	614.656451680819	666
0	2994	615	665
0	3000	616.545933249853	666
0	3001	616.545933249853	667
0	3002	617.5	666
0	3008	617.537856563484	667
0	3009	617.537856563484	668
0	3013	618.550526467717	669
0	3014	618.550526467717	670
0	3015	620	669
0	3021	621.046081293539	670
0	3022	621.046081293539	671
0	3023	622.5	670