version 3
run k_MM1_rand-27-20221127-16:03:21-5740
attr configname k_MM1_rand
attr datetime 20221127-16:03:21
attr datetimef 20221127-160321
attr experiment k_MM1_rand
attr inifile omnetpp.ini
attr iterationvars "$time=2.5, $num=1, $0=33434, $1=56673, $2=23567"
attr iterationvarsd time=2.5/num=1/33434/56673/23567
attr iterationvarsf time=2.5,num=1,33434,56673,23567-
attr measurement "$time=2.5, $num=1, $0=33434, $1=56673, $2=23567"
attr network randkMM1
attr processid 5740
attr repetition 3
attr replication #3
attr resultdir results
attr runnumber 27
attr seedset 27
itervar num 1
itervar time 2.5
config description "MM1 module k-times random"
config network randkMM1
config **.source.interArrivalTime "truncnormal(0.5s, 1.5s)"
config **.serviceTime 2.5s
config **.c 1
config **.capacity 10000
config record-eventlog false
config **.scalar-recording true
config **.vector-recording true
config repeat 4
config seed-1-mt 33434
config seed-2-mt 56673
config seed-3-mt 23567
config output-vector-file k_MM1_rand-1-2.5-results/3.vec
config output-scalar-file k_MM1_rand-1-2.5-results/3.sca

vector 0 randkMM1.mm1[0] queueLength:vector ETV
attr interpolationmode none
attr recordingmode vector
attr title "queue length"
vector 1 randkMM1.mm1[0] util:vector ETV
attr interpolationmode none
attr recordingmode vector
attr title resources
0	5	10	1
0	6	12.5	0
0	12	12.869574426504	1
0	13	12.869574426504	2
0	17	12.968320564803	3
0	18	12.968320564803	4
0	19	15	3
0	25	15.730246477084	4
0	26	15.730246477084	5
0	27	17.5	4
0	33	18.523082007651	5
0	34	18.523082007651	6
0	35	20	5
0	41	20.250376433754	6
0	42	20.250376433754	7
0	43	22.5	6
0	49	23.24419923487	7
0	50	23.24419923487	8
0	54	24.708657434104	9
0	55	24.708657434104	10
0	56	25	9
0	62	26.422435207775	10
0	63	26.422435207775	11
0	67	27.320310279058	12
0	68	27.320310279058	13
0	69	27.5	12
0	72	30	11
0	78	30.077195750209	12
0	79	30.077195750209	13
0	83	30.991649119253	14
0	84	30.991649119253	15
0	88	32.370883228938	16
0	89	32.370883228938	17
0	90	32.5	16
0	96	32.911382656468	17
0	97	32.911382656468	18
0	101	34.691387280534	19
0	102	34.691387280534	20
0	103	35	19
0	109	35.239297475698	20
0	110	35.239297475698	21
0	111	37.5	20
0	117	38.067290807952	21
0	118	38.067290807952	22
0	122	38.935146881863	23
0	123	38.935146881863	24
0	127	39.749710553537	25
0	128	39.749710553537	26
0	129	40	25
0	135	41.904039478387	26
0	136	41.904039478387	27
0	137	42.5	26
0	140	45	25
0	146	45.538386527732	26
0	147	45.538386527732	27
0	148	47.5	26
0	154	48.342898775215	27
0	155	48.342898775215	28
0	156	50	27
0	162	50.579691761072	28
0	163	50.579691761072	29
0	167	52.489817996778	30
0	168	52.489817996778	31
0	169	52.5	30
0	175	52.938168420962	31
0	176	52.938168420962	32
0	180	53.638339726268	33
0	181	53.638339726268	34
0	182	55	33
0	188	57.050064043027	34
0	189	57.050064043027	35
0	193	57.35348306913	36
0	194	57.35348306913	37
0	195	57.5	36
0	201	57.842066332675	37
0	202	57.842066332675	38
0	203	60	37
0	209	60.306714157788	38
0	210	60.306714157788	39
0	214	60.680785498354	40
0	215	60.680785498354	41
0	219	61.727471562691	42
0	220	61.727471562691	43
0	221	62.5	42
0	227	62.629028563211	43
0	228	62.629028563211	44
0	229	65	43
0	235	66.174880840009	44
0	236	66.174880840009	45
0	240	66.49503058133	46
0	241	66.49503058133	47
0	242	67.5	46
0	248	68.525805107819	47
0	249	68.525805107819	48
0	253	69.84540607605	49
0	254	69.84540607605	50
0	255	70	49
0	261	72.051862676411	50
0	262	72.051862676411	51
0	263	72.5	50
0	269	73.953558106103	51
0	270	73.953558106103	52
0	271	75	51
0	277	77.056843455925	52
0	278	77.056843455925	53
0	279	77.5	52
0	285	78.319565155782	53
0	286	78.319565155782	54
0	287	80	53
0	293	80.323398530912	54
0	294	80.323398530912	55
0	298	81.433510796555	56
0	299	81.433510796555	57
0	300	82.5	56
0	306	84.403142058792	57
0	307	84.403142058792	58
0	308	85	57
0	311	87.5	56
0	317	87.866115323542	57
0	318	87.866115323542	58
0	322	88.993883524724	59
0	323	88.993883524724	60
0	327	89.621486056617	61
0	328	89.621486056617	62
0	329	90	61
0	335	91.650759237954	62
0	336	91.650759237954	63
0	340	91.900288038443	64
0	341	91.900288038443	65
0	342	92.5	64
0	348	92.979858348791	65
0	349	92.979858348791	66
0	353	93.852477113281	67
0	354	93.852477113281	68
0	358	94.825167497109	69
0	359	94.825167497109	70
0	360	95	69
0	366	95.044891973598	70
0	367	95.044891973598	71
0	371	95.382520601327	72
0	372	95.382520601327	73
0	376	96.253549823354	74
0	377	96.253549823354	75
0	378	97.5	74
0	384	97.797520280074	75
0	385	97.797520280074	76
0	386	100	75
0	392	100.098858773368	76
0	393	100.098858773368	77
0	394	102.5	76
0	400	103.997355223054	77
0	401	103.997355223054	78
0	405	104.885417624536	79
0	406	104.885417624536	80
0	407	105	79
0	413	105.431802396079	80
0	414	105.431802396079	81
0	418	106.834097571322	82
0	419	106.834097571322	83
0	423	107.089154640264	84
0	424	107.089154640264	85
0	425	107.5	84
0	431	109.078373211417	85
0	432	109.078373211417	86
0	433	110	85
0	439	110.706062510457	86
0	440	110.706062510457	87
0	444	110.871049079907	88
0	445	110.871049079907	89
0	446	112.5	88
0	452	112.792785181418	89
0	453	112.792785181418	90
0	457	113.392832104365	91
0	458	113.392832104365	92
0	462	113.820440598192	93
0	463	113.820440598192	94
0	464	115	93
0	470	116.793128954633	94
0	471	116.793128954633	95
0	472	117.5	94
0	478	117.569387416932	95
0	479	117.569387416932	96
0	483	119.441500984109	97
0	484	119.441500984109	98
0	485	120	97
0	491	121.024283816137	98
0	492	121.024283816137	99
0	493	122.5	98
0	499	122.628499519091	99
0	500	122.628499519091	100
0	501	125	99
0	507	125.21586495061	100
0	508	125.21586495061	101
0	512	125.729988484614	102
0	513	125.729988484614	103
0	517	126.991519485324	104
0	518	126.991519485324	105
0	519	127.5	104
0	525	127.909358648589	105
0	526	127.909358648589	106
0	530	128.877095658105	107
0	531	128.877095658105	108
0	532	130	107
0	538	130.035922755013	108
0	539	130.035922755013	109
0	543	130.80246368183	110
0	544	130.80246368183	111
0	548	131.629184131693	112
0	549	131.629184131693	113
0	550	132.5	112
0	556	134.177296369029	113
0	557	134.177296369029	114
0	558	135	113
0	564	135.651028391794	114
0	565	135.651028391794	115
0	566	137.5	114
0	572	138.322554829519	115
0	573	138.322554829519	116
0	577	139.299874348734	117
0	578	139.299874348734	118
0	579	140	117
0	585	140.351402944562	118
0	586	140.351402944562	119
0	590	141.115172879483	120
0	591	141.115172879483	121
0	592	142.5	120
0	598	144.717852977945	121
0	599	144.717852977945	122
0	600	145	121
0	606	145.027260759173	122
0	607	145.027260759173	123
0	608	147.5	122
0	614	148.985976916748	123
0	615	148.985976916748	124
0	619	149.068933589098	125
0	620	149.068933589098	126
0	621	150	125
0	627	150.922189630877	126
0	628	150.922189630877	127
0	632	150.931963302704	128
0	633	150.931963302704	129
0	637	151.445077812024	130
0	638	151.445077812024	131
0	639	152.5	130
0	645	152.532780353459	131
0	646	152.532780353459	132
0	647	155	131
0	653	156.623147966266	132
0	654	156.623147966266	133
0	655	157.5	132
0	661	158.806778052728	133
0	662	158.806778052728	134
0	666	159.969334958232	135
0	667	159.969334958232	136
0	668	160	135
0	674	160.326896984681	136
0	675	160.326896984681	137
0	679	160.333762454266	138
0	680	160.333762454266	139
0	681	162.5	138
0	687	163.057431735699	139
0	688	163.057431735699	140
0	692	164.26892658225	141
0	693	164.26892658225	142
0	694	165	141
0	700	165.085259412808	142
0	701	165.085259412808	143
0	705	166.572962741457	144
0	706	166.572962741457	145
0	707	167.5	144
0	713	168.641491609213	145
0	714	168.641491609213	146
0	715	170	145
0	721	170.888958676824	146
0	722	170.888958676824	147
0	726	171.456986832969	148
0	727	171.456986832969	149
0	731	171.489098919935	150
0	732	171.489098919935	151
0	736	172.472941136592	152
0	737	172.472941136592	153
0	738	172.5	152
0	744	173.566768734553	153
0	745	173.566768734553	154
0	749	174.649684570396	155
0	750	174.649684570396	156
0	751	175	155
0	757	176.994150798195	156
0	758	176.994150798195	157
0	762	177.048446008117	158
0	763	177.048446008117	159
0	767	177.211031282074	160
0	768	177.211031282074	161
0	769	177.5	160
0	775	178.403964125034	161
0	776	178.403964125034	162
0	777	180	161
0	783	180.5701714956	162
0	784	180.5701714956	163
0	788	182.063138141965	164
0	789	182.063138141965	165
0	790	182.5	164
0	796	184.271778238253	165
0	797	184.271778238253	166
0	798	185	165
0	804	185.737756837795	166
0	805	185.737756837795	167
0	809	185.812594598058	168
0	810	185.812594598058	169
0	814	186.499683616537	170
0	815	186.499683616537	171
0	816	187.5	170
0	819	190	169
0	825	190.396972109882	170
0	826	190.396972109882	171
0	830	192.346696103492	172
0	831	192.346696103492	173
0	832	192.5	172
0	838	194.500585005216	173
0	839	194.500585005216	174
0	840	195	173
0	846	195.41537661324	174
0	847	195.41537661324	175
0	848	197.5	174
0	854	198.091780127279	175
0	855	198.091780127279	176
0	856	200	175
0	862	200.940815823379	176
0	863	200.940815823379	177
0	867	201.975973715266	178
0	868	201.975973715266	179
0	872	202.323466805111	180
0	873	202.323466805111	181
0	874	202.5	180
0	880	203.314912248088	181
0	881	203.314912248088	182
0	885	203.798413119819	183
0	886	203.798413119819	184
0	890	204.891934705988	185
0	891	204.891934705988	186
0	892	205	185
0	898	206.672342778379	186
0	899	206.672342778379	187
0	900	207.5	186
0	906	208.836703506368	187
0	907	208.836703506368	188
0	908	210	187
0	914	210.466228568245	188
0	915	210.466228568245	189
0	916	212.5	188
0	922	214.094950452579	189
0	923	214.094950452579	190
0	927	214.843097969761	191
0	928	214.843097969761	192
0	929	215	191
0	935	216.085787611765	192
0	936	216.085787611765	193
0	940	216.973836584121	194
0	941	216.973836584121	195
0	945	217.333319517636	196
0	946	217.333319517636	197
0	947	217.5	196
0	953	218.983368045176	197
0	954	218.983368045176	198
0	955	220	197
0	958	222.5	196
0	964	222.69655160867	197
0	965	222.69655160867	198
0	969	224.144391363444	199
0	970	224.144391363444	200
0	971	225	199
0	977	226.695057849537	200
0	978	226.695057849537	201
0	982	227.246303555626	202
0	983	227.246303555626	203
0	984	227.5	202
0	990	227.537560525502	203
0	991	227.537560525502	204
0	992	230	203
0	998	231.537397159727	204
0	999	231.537397159727	205
0	1000	232.5	204
0	1006	234.412082295806	205
0	1007	234.412082295806	206
0	1008	235	205
0	1014	235.700316410799	206
0	1015	235.700316410799	207
0	1019	237.366745409181	208
0	1020	237.366745409181	209
0	1021	237.5	208
0	1024	240	207
0	1030	240.541661861354	208
0	1031	240.541661861354	209
0	1035	242.229171945573	210
0	1036	242.229171945573	211
0	1037	242.5	210
0	1040	245	209
0	1046	245.562800896527	210
0	1047	245.562800896527	211
0	1051	246.439785479264	212
0	1052	246.439785479264	213
0	1056	247.40381959024	214
0	1057	247.40381959024	215
0	1058	247.5	214
0	1064	249.587941422073	215
0	1065	249.587941422073	216
0	1069	249.897483372	217
0	1070	249.897483372	218
0	1071	250	217
0	1077	251.943840278153	218
0	1078	251.943840278153	219
0	1082	252.258255897367	220
0	1083	252.258255897367	221
0	1084	252.5	220
0	1087	255	219
0	1093	257.126303880615	220
0	1094	257.126303880615	221
0	1098	257.172551953277	222
0	1099	257.172551953277	223
0	1103	257.404371570009	224
0	1104	257.404371570009	225
0	1105	257.5	224
0	1111	259.469391535018	225
0	1112	259.469391535018	226
0	1113	260	225
0	1119	262.260262472709	226
0	1120	262.260262472709	227
0	1121	262.5	226
0	1127	263.23092118505	227
0	1128	263.23092118505	228
0	1132	264.368505584317	229
0	1133	264.368505584317	230
0	1134	265	229
0	1137	267.5	228
0	1143	267.609996662876	229
0	1144	267.609996662876	230
0	1148	267.672690275305	231
0	1149	267.672690275305	232
0	1153	268.394097531002	233
0	1154	268.394097531002	234
0	1158	269.937684856094	235
0	1159	269.937684856094	236
0	1160	270	235
0	1166	271.097669610532	236
0	1167	271.097669610532	237
0	1168	272.5	236
0	1174	273.261160744179	237
0	1175	273.261160744179	238
0	1179	273.730053673588	239
0	1180	273.730053673588	240
0	1181	275	239
0	1187	275.424825530502	240
0	1188	275.424825530502	241
0	1189	277.5	240
0	1195	278.403105129236	241
0	1196	278.403105129236	242
0	1200	279.729094978907	243
0	1201	279.729094978907	244
0	1202	280	243
0	1208	281.69696445443	244
0	1209	281.69696445443	245
0	1210	282.5	244
0	1216	283.764181509014	245
0	1217	283.764181509014	246
0	1218	285	245
0	1221	287.5	244
0	1227	288.254361630151	245
0	1228	288.254361630151	246
0	1229	290	245
0	1235	290.775017107508	246
0	1236	290.775017107508	247
0	1237	292.5	246
0	1243	294.903314245356	247
0	1244	294.903314245356	248
0	1245	295	247
0	1248	297.5	246
0	1254	298.490471857057	247
0	1255	298.490471857057	248
0	1259	299.051448023177	249
0	1260	299.051448023177	250
0	1261	300	249
0	1267	300.557216825345	250
0	1268	300.557216825345	251
0	1269	302.5	250
0	1275	303.288069490874	251
0	1276	303.288069490874	252
0	1277	305	251
0	1283	305.139813125892	252
0	1284	305.139813125892	253
0	1288	307.12780327875	254
0	1289	307.12780327875	255
0	1290	307.5	254
0	1296	309.891711969963	255
0	1297	309.891711969963	256
0	1298	310	255
0	1304	310.620359759165	256
0	1305	310.620359759165	257
0	1309	311.822872739597	258
0	1310	311.822872739597	259
0	1314	312.054497576246	260
0	1315	312.054497576246	261
0	1316	312.5	260
0	1322	314.734349079555	261
0	1323	314.734349079555	262
0	1324	315	261
0	1330	316.778364619979	262
0	1331	316.778364619979	263
0	1335	316.972493405743	264
0	1336	316.972493405743	265
0	1337	317.5	264
0	1343	317.5310725287	265
0	1344	317.5310725287	266
0	1348	318.335050550948	267
0	1349	318.335050550948	268
0	1353	318.335615186537	269
0	1354	318.335615186537	270
0	1358	318.361526328949	271
0	1359	318.361526328949	272
0	1363	319.823906583418	273
0	1364	319.823906583418	274
0	1365	320	273
0	1371	320.296047668815	274
0	1372	320.296047668815	275
0	1376	320.628588378342	276
0	1377	320.628588378342	277
0	1381	321.05176546427	278
0	1382	321.05176546427	279
0	1383	322.5	278
0	1389	323.313321728388	279
0	1390	323.313321728388	280
0	1391	325	279
0	1397	325.914647969326	280
0	1398	325.914647969326	281
0	1402	327.488072352656	282
0	1403	327.488072352656	283
0	1404	327.5	282
0	1410	327.852668939917	283
0	1411	327.852668939917	284
0	1415	329.523367930322	285
0	1416	329.523367930322	286
0	1417	330	285
0	1423	331.388322908931	286
0	1424	331.388322908931	287
0	1428	331.702142079326	288
0	1429	331.702142079326	289
0	1433	332.08823680537	290
0	1434	332.08823680537	291
0	1435	332.5	290
0	1441	332.749403625482	291
0	1442	332.749403625482	292
0	1446	333.879854198094	293
0	1447	333.879854198094	294
0	1451	334.134048965711	295
0	1452	334.134048965711	296
0	1453	335	295
0	1459	335.538715938257	296
0	1460	335.538715938257	297
0	1464	336.492342486784	298
0	1465	336.492342486784	299
0	1469	336.675455716765	300
0	1470	336.675455716765	301
0	1471	337.5	300
0	1477	339.991052767676	301
0	1478	339.991052767676	302
0	1479	340	301
0	1485	340.310617368336	302
0	1486	340.310617368336	303
0	1487	342.5	302
0	1493	343.687260319931	303
0	1494	343.687260319931	304
0	1495	345	303
0	1501	345.745253445982	304
0	1502	345.745253445982	305
0	1506	346.481790004637	306
0	1507	346.481790004637	307
0	1508	347.5	306
0	1514	347.523760813137	307
0	1515	347.523760813137	308
0	1519	348.190234356022	309
0	1520	348.190234356022	310
0	1521	350	309
0	1527	350.279122142288	310
0	1528	350.279122142288	311
0	1532	350.792660624477	312
0	1533	350.792660624477	313
0	1534	352.5	312
0	1540	352.974151327551	313
0	1541	352.974151327551	314
0	1545	353.940495526883	315
0	1546	353.940495526883	316
0	1547	355	315
0	1553	356.066460551096	316
0	1554	356.066460551096	317
0	1558	356.875869532828	318
0	1559	356.875869532828	319
0	1563	357.013007654708	320
0	1564	357.013007654708	321
0	1565	357.5	320
0	1571	358.738334139222	321
0	1572	358.738334139222	322
0	1576	359.928122348555	323
0	1577	359.928122348555	324
0	1578	360	323
0	1584	360.999976328468	324
0	1585	360.999976328468	325
0	1586	362.5	324
0	1589	365	323
0	1595	365.082139628468	324
0	1596	365.082139628468	325
0	1600	367.399743712496	326
0	1601	367.399743712496	327
0	1602	367.5	326
0	1608	368.387220940432	327
0	1609	368.387220940432	328
0	1613	368.76026719197	329
0	1614	368.76026719197	330
0	1615	370	329
0	1621	370.679914239483	330
0	1622	370.679914239483	331
0	1626	370.81575586108	332
0	1627	370.81575586108	333
0	1631	370.826631458967	334
0	1632	370.826631458967	335
0	1636	371.320238414567	336
0	1637	371.320238414567	337
0	1641	372.003886114974	338
0	1642	372.003886114974	339
0	1643	372.5	338
0	1649	374.022721083973	339
0	1650	374.022721083973	340
0	1654	374.913283910213	341
0	1655	374.913283910213	342
0	1656	375	341
0	1662	375.159828362756	342
0	1663	375.159828362756	343
0	1667	376.260767851736	344
0	1668	376.260767851736	345
0	1669	377.5	344
0	1675	377.545479134124	345
0	1676	377.545479134124	346
0	1680	379.611727235513	347
0	1681	379.611727235513	348
0	1682	380	347
0	1688	381.428796454	348
0	1689	381.428796454	349
0	1693	382.173330969929	350
0	1694	382.173330969929	351
0	1695	382.5	350
0	1698	385	349
0	1704	385.57904200597	350
0	1705	385.57904200597	351
0	1709	386.876280574265	352
0	1710	386.876280574265	353
0	1711	387.5	352
0	1717	387.66067444418	353
0	1718	387.66067444418	354
0	1722	388.669277451825	355
0	1723	388.669277451825	356
0	1727	389.527628474609	357
0	1728	389.527628474609	358
0	1732	389.934546994901	359
0	1733	389.934546994901	360
0	1734	390	359
0	1740	391.024642327889	360
0	1741	391.024642327889	361
0	1745	391.295565061559	362
0	1746	391.295565061559	363
0	1747	392.5	362
0	1753	392.858670651969	363
0	1754	392.858670651969	364
0	1758	394.709551706705	365
0	1759	394.709551706705	366
0	1760	395	365
0	1763	397.5	364
0	1769	397.97618804724	365
0	1770	397.97618804724	366
0	1774	399.155030731649	367
0	1775	399.155030731649	368
0	1776	400	367
0	1782	401.478416169357	368
0	1783	401.478416169357	369
0	1784	402.5	368
0	1790	404.494870453512	369
0	1791	404.494870453512	370
0	1792	405	369
0	1798	406.146140333174	370
0	1799	406.146140333174	371
0	1803	407.478996323031	372
0	1804	407.478996323031	373
0	1805	407.5	372
0	1811	407.666420900989	373
0	1812	407.666420900989	374
0	1816	408.262120143894	375
0	1817	408.262120143894	376
0	1821	409.771702905345	377
0	1822	409.771702905345	378
0	1823	410	377
0	1829	410.509925177199	378
0	1830	410.509925177199	379
0	1834	410.650424380401	380
0	1835	410.650424380401	381
0	1839	411.468571121329	382
0	1840	411.468571121329	383
0	1841	412.5	382
0	1847	414.470801098297	383
0	1848	414.470801098297	384
0	1849	415	383
0	1855	416.279901373637	384
0	1856	416.279901373637	385
0	1860	417.123142244664	386
0	1861	417.123142244664	387
0	1862	417.5	386
0	1868	417.583187157063	387
0	1869	417.583187157063	388
0	1873	418.055235714266	389
0	1874	418.055235714266	390
0	1878	418.483864521941	391
0	1879	418.483864521941	392
0	1883	419.742595726181	393
0	1884	419.742595726181	394
0	1885	420	393
0	1891	421.649715032868	394
0	1892	421.649715032868	395
0	1893	422.5	394
0	1899	423.595576603953	395
0	1900	423.595576603953	396
0	1904	424.707867167033	397
0	1905	424.707867167033	398
0	1906	425	397
0	1912	426.130144950879	398
0	1913	426.130144950879	399
0	1917	426.139822931847	400
0	1918	426.139822931847	401
0	1922	427.452810385872	402
0	1923	427.452810385872	403
0	1924	427.5	402
0	1930	428.292923907475	403
0	1931	428.292923907475	404
0	1935	428.358871214508	405
0	1936	428.358871214508	406
0	1937	430	405
0	1943	431.308856471962	406
0	1944	431.308856471962	407
0	1945	432.5	406
0	1951	432.908215796552	407
0	1952	432.908215796552	408
0	1956	433.810677679417	409
0	1957	433.810677679417	410
0	1961	434.575466865777	411
0	1962	434.575466865777	412
0	1963	435	411
0	1969	435.919461014734	412
0	1970	435.919461014734	413
0	1974	436.140207876811	414
0	1975	436.140207876811	415
0	1979	436.480728687707	416
0	1980	436.480728687707	417
0	1984	436.89691841567	418
0	1985	436.89691841567	419
0	1989	437.279471925144	420
0	1990	437.279471925144	421
0	1991	437.5	420
0	1997	438.410581219477	421
0	1998	438.410581219477	422
0	1999	440	421
0	2005	440.044914184699	422
0	2006	440.044914184699	423
0	2010	441.318055677752	424
0	2011	441.318055677752	425
0	2012	442.5	424
0	2018	444.019520002096	425
0	2019	444.019520002096	426
0	2020	445	425
0	2026	446.512039941005	426
0	2027	446.512039941005	427
0	2028	447.5	426
0	2034	447.744758218278	427
0	2035	447.744758218278	428
0	2039	448.532137100296	429
0	2040	448.532137100296	430
0	2044	449.590761516791	431
0	2045	449.590761516791	432
0	2049	449.769979703163	433
0	2050	449.769979703163	434
0	2051	450	433
0	2057	450.318329803571	434
0	2058	450.318329803571	435
0	2062	450.341134097555	436
0	2063	450.341134097555	437
0	2067	450.480690875178	438
0	2068	450.480690875178	439
0	2072	450.979443794724	440
0	2073	450.979443794724	441
0	2074	452.5	440
0	2080	452.686511925637	441
0	2081	452.686511925637	442
0	2085	453.360299551644	443
0	2086	453.360299551644	444
0	2090	454.581714124176	445
0	2091	454.581714124176	446
0	2092	455	445
0	2098	457.290247948252	446
0	2099	457.290247948252	447
0	2100	457.5	446
0	2106	457.595373759475	447
0	2107	457.595373759475	448
0	2111	457.638130206618	449
0	2112	457.638130206618	450
0	2116	458.236094625882	451
0	2117	458.236094625882	452
0	2121	459.840377707395	453
0	2122	459.840377707395	454
0	2126	459.973780139843	455
0	2127	459.973780139843	456
0	2128	460	455
0	2134	462.435329449914	456
0	2135	462.435329449914	457
0	2136	462.5	456
0	2142	462.914898846887	457
0	2143	462.914898846887	458
0	2147	464.544838787227	459
0	2148	464.544838787227	460
0	2149	465	459
0	2155	465.049009598038	460
0	2156	465.049009598038	461
0	2160	466.22805508576	462
0	2161	466.22805508576	463
0	2162	467.5	462
0	2168	468.127299698014	463
0	2169	468.127299698014	464
0	2173	468.85957097375	465
0	2174	468.85957097375	466
0	2178	468.870133371969	467
0	2179	468.870133371969	468
0	2180	470	467
0	2186	472.102145131579	468
0	2187	472.102145131579	469
0	2188	472.5	468
0	2194	474.053882468106	469
0	2195	474.053882468106	470
0	2199	474.65079653241	471
0	2200	474.65079653241	472
0	2201	475	471
0	2207	475.776306880467	472
0	2208	475.776306880467	473
0	2209	477.5	472
0	2215	478.782091468739	473
0	2216	478.782091468739	474
0	2217	480	473
0	2223	481.132063034963	474
0	2224	481.132063034963	475
0	2228	482.131776536553	476
0	2229	482.131776536553	477
0	2230	482.5	476
0	2236	484.183949654362	477
0	2237	484.183949654362	478
0	2238	485	477
0	2244	486.050838915504	478
0	2245	486.050838915504	479
0	2249	486.163642397463	480
0	2250	486.163642397463	481
0	2251	487.5	480
0	2257	488.069986962673	481
0	2258	488.069986962673	482
0	2262	488.71892932961	483
0	2263	488.71892932961	484
0	2267	489.200032064436	485
0	2268	489.200032064436	486
0	2272	489.688180038173	487
0	2273	489.688180038173	488
0	2274	490	487
0	2280	491.730433203213	488
0	2281	491.730433203213	489
0	2282	492.5	488
0	2288	494.665962802293	489
0	2289	494.665962802293	490
0	2293	494.934288171743	491
0	2294	494.934288171743	492
0	2295	495	491
0	2301	495.481982807567	492
0	2302	495.481982807567	493
0	2303	497.5	492
0	2309	498.589616207049	493
0	2310	498.589616207049	494
0	2314	499.492688301009	495
0	2315	499.492688301009	496
0	2316	500	495
0	2322	500.863341337288	496
0	2323	500.863341337288	497
0	2324	502.5	496
0	2330	502.93253169696	497
0	2331	502.93253169696	498
0	2335	503.617937214813	499
0	2336	503.617937214813	500
0	2340	504.153590103328	501
0	2341	504.153590103328	502
0	2342	505	501
0	2348	505.776052953923	502
0	2349	505.776052953923	503
0	2353	505.994303636882	504
0	2354	505.994303636882	505
0	2355	507.5	504
0	2361	508.359153763921	505
0	2362	508.359153763921	506
0	2366	509.75316723999	507
0	2367	509.75316723999	508
0	2368	510	507
0	2374	512.051822730842	508
0	2375	512.051822730842	509
0	2376	512.5	508
0	2379	515	507
0	2385	516.402538304438	508
0	2386	516.402538304438	509
0	2390	517.320722260663	510
0	2391	517.320722260663	511
0	2392	517.5	510
0	2398	519.564683448068	511
0	2399	519.564683448068	512
0	2400	520	511
0	2406	521.65388325232	512
0	2407	521.65388325232	513
0	2411	521.925289874097	514
0	2412	521.925289874097	515
0	2413	522.5	514
0	2419	522.500557703166	515
0	2420	522.500557703166	516
0	2424	524.447137433815	517
0	2425	524.447137433815	518
0	2426	525	517
0	2432	525.087150208305	518
0	2433	525.087150208305	519
0	2437	525.138861925842	520
0	2438	525.138861925842	521
0	2442	525.778690609473	522
0	2443	525.778690609473	523
0	2447	526.793287459934	524
0	2448	526.793287459934	525
0	2449	527.5	524
0	2455	529.612667391573	525
0	2456	529.612667391573	526
0	2457	530	525
0	2463	531.508142841233	526
0	2464	531.508142841233	527
0	2465	532.5	526
0	2471	532.626001745427	527
0	2472	532.626001745427	528
0	2476	533.625278082446	529
0	2477	533.625278082446	530
0	2478	535	529
0	2484	536.794917605701	530
0	2485	536.794917605701	531
0	2489	537.408823094831	532
0	2490	537.408823094831	533
0	2491	537.5	532
0	2494	540	531
0	2500	541.16763197872	532
0	2501	541.16763197872	533
0	2505	541.321717197043	534
0	2506	541.321717197043	535
0	2507	542.5	534
0	2513	542.964721718336	535
0	2514	542.964721718336	536
0	2515	545	535
0	2521	545.496872426743	536
0	2522	545.496872426743	537
0	2526	546.150057172017	538
0	2527	546.150057172017	539
0	2531	547.154677141981	540
0	2532	547.154677141981	541
0	2533	547.5	540
0	2539	547.786970151111	541
0	2540	547.786970151111	542
0	2544	549.102142906065	543
0	2545	549.102142906065	544
0	2546	550	543
0	2552	550.632725837637	544
0	2553	550.632725837637	545
0	2557	551.051969572045	546
0	2558	551.051969572045	547
0	2562	551.639160711857	548
0	2563	551.639160711857	549
0	2564	552.5	548
0	2570	553.422918869601	549
0	2571	553.422918869601	550
0	2575	554.004269012	551
0	2576	554.004269012	552
0	2577	555	551
0	2583	556.575760987995	552
0	2584	556.575760987995	553
0	2585	557.5	552
0	2591	557.907359516091	553
0	2592	557.907359516091	554
0	2596	558.087323548695	555
0	2597	558.087323548695	556
0	2601	559.531007641958	557
0	2602	559.531007641958	558
0	2606	559.648253314147	559
0	2607	559.648253314147	560
0	2611	559.875018098028	561
0	2612	559.875018098028	562
0	2613	560	561
0	2619	560.653222908691	562
0	2620	560.653222908691	563
0	2624	562.386886724749	564
0	2625	562.386886724749	565
0	2626	562.5	564
0	2632	563.143908830293	565
0	2633	563.143908830293	566
0	2637	563.654933250547	567
0	2638	563.654933250547	568
0	2642	563.729056453939	569
0	2643	563.729056453939	570
0	2644	565	569
0	2650	567.315900985309	570
0	2651	567.315900985309	571
0	2652	567.5	570
0	2655	570	569
0	2661	570.618746575784	570
0	2662	570.618746575784	571
0	2663	572.5	570
0	2669	572.751627067544	571
0	2670	572.751627067544	572
0	2674	574.607931068991	573
0	2675	574.607931068991	574
0	2676	575	573
0	2682	576.34482169809	574
0	2683	576.34482169809	575
0	2684	577.5	574
0	2690	578.378476347602	575
0	2691	578.378476347602	576
0	2695	579.098247692384	577
0	2696	579.098247692384	578
0	2697	580	577
0	2703	580.278173745166	578
0	2704	580.278173745166	579
0	2708	581.759916101954	580
0	2709	581.759916101954	581
0	2713	582.199502351393	582
0	2714	582.199502351393	583
0	2715	582.5	582
0	2721	584.082665982592	583
0	2722	584.082665982592	584
0	2723	585	583
0	2726	587.5	582
0	2732	588.319886377398	583
0	2733	588.319886377398	584
0	2737	589.865859677949	585
0	2738	589.865859677949	586
0	2742	589.950822348395	587
0	2743	589.950822348395	588
0	2744	590	587
0	2750	591.609989602326	588
0	2751	591.609989602326	589
0	2752	592.5	588
0	2758	593.551453338958	589
0	2759	593.551453338958	590
0	2760	595	589
0	2766	595.6425764679	590
0	2767	595.6425764679	591
0	2771	597.104337334116	592
0	2772	597.104337334116	593
0	2773	597.5	592
0	2779	598.15695542674	593
0	2780	598.15695542674	594
0	2784	598.384214833782	595
0	2785	598.384214833782	596
0	2789	598.794723909714	597
0	2790	598.794723909714	598
0	2794	599.11832830733	599
0	2795	599.11832830733	600
0	2796	600	599
0	2802	600.396503005741	600
0	2803	600.396503005741	601
0	2807	601.151287443183	602
0	2808	601.151287443183	603
0	2812	601.195742828789	604
0	2813	601.195742828789	605
0	2814	602.5	604
0	2820	603.202179172523	605
0	2821	603.202179172523	606
0	2825	603.498773049727	607
0	2826	603.498773049727	608
0	2830	603.906649396717	609
0	2831	603.906649396717	610
0	2832	605	609
0	2838	605.483984514928	610
0	2839	605.483984514928	611
0	2843	607.08220806796	612
0	2844	607.08220806796	613
0	2845	607.5	612
0	2851	608.674840845043	613
0	2852	608.674840845043	614
0	2856	609.858182351744	615
0	2857	609.858182351744	616
0	2858	610	615
0	2864	612.379946421768	616
0	2865	612.379946421768	617
0	2866	612.5	616
0	2869	615	615
0	2875	615.994866949145	616
0	2876	615.994866949145	617
0	2880	617.367387472481	618
0	2881	617.367387472481	619
0	2882	617.5	618
0	2888	617.944120114074	619
0	2889	617.944120114074	620
0	2893	618.52686222278	621
0	2894	618.52686222278	622
0	2895	620	621
0	2901	620.407753410455	622
0	2902	620.407753410455	623
0	2906	621.331582556209	624
0	2907	621.331582556209	625
0	2911	622.205242102847	626
0	2912	622.205242102847	627
0	2913	622.5	626
0	2916	625	625
0	2922	625.297112891754	626
0	2923	625.297112891754	627
0	2927	625.423369275178	628
0	2928	625.423369275178	629
0	2932	626.945152039075	630
0	2933	626.945152039075	631
0	2937	627.496628775513	632
0	2938	627.496628775513	633
0	2939	627.5	632
0	2945	627.518792108024	633
0	2946	627.518792108024	634
0	2950	628.593360564804	635
0	2951	628.593360564804	636
0	2955	629.827212437605	637
0	2956	629.827212437605	638
0	2957	630	637
0	2963	630.553554355278	638
0	2964	630.553554355278	639
0	2968	631.648167304634	640
0	2969	631.648167304634	641
0	2973	631.859895011675	642
0	2974	631.859895011675	643
0	2975	632.5	642
0	2981	633.185364883748	643
0	2982	633.185364883748	644
0	2983	635	643
0	2989	635.058730770172	644
0	2990	635.058730770172	645
0	2994	636.48451320297	646
0	2995	636.48451320297	647
0	2996	637.5	646
0	2999	640	645
0	3005	640.022645050814	646
0	3006	640.022645050814	647
0	3010	641.099377735565	648
0	3011	641.099377735565	649
0	3012	642.5	648
0	3018	642.567562951006	649
0	3019	642.567562951006	650
0	3023	643.217348929832	651
0	3024	643.217348929832	652
0	3028	644.749906644525	653
0	3029	644.749906644525	654
0	3033	644.949321165468	655
0	3034	644.949321165468	656
0	3035	645	655
0	3038	647.5	654