version 3
run MMc-20-20221127-11:38:41-7588
attr configname MMc
attr datetime 20221127-11:38:41
attr datetimef 20221127-113841
attr experiment MMc
attr inifile omnetpp.ini
attr iterationvars "$mean=uniform(0.5s, 1.5s), $dev=0.5*(uniform(0.5s, 1.5s)), $time=1.5, $num=5, $0=53542, $1=75335, $2=34542"
attr iterationvarsd mean=uniform(0.5s,_1.5s)/dev=0.5#2a(uniform(0.5s,_1.5s))/time=1.5/num=5/53542/75335/34542
attr iterationvarsf mean=uniform(0.5s,_1.5s),dev=0.5#2a(uniform(0.5s,_1.5s)),time=1.5,num=5,53542,75335,34542-
attr measurement "$mean=uniform(0.5s, 1.5s), $dev=0.5*(uniform(0.5s, 1.5s)), $time=1.5, $num=5, $0=53542, $1=75335, $2=34542"
attr network MMc
attr processid 7588
attr repetition 0
attr replication #0
attr resultdir results
attr runnumber 20
attr seedset 20
itervar dev "0.5*(uniform(0.5s, 1.5s))"
itervar mean "uniform(0.5s, 1.5s)"
itervar num 5
itervar time 1.5
config description "MMc module"
config network MMc
config MMc.source.interArrivalTime "truncnormal(uniform(0.5s, 1.5s), 0.5*(uniform(0.5s, 1.5s)))"
config MMc.mmc.serviceTime 1.5s
config MMc.mmc.c 5
config MMc.mmc.capacity 10000
config record-eventlog false
config **.scalar-recording true
config **.vector-recording true
config repeat 4
config seed-1-mt 53542
config seed-2-mt 75335
config seed-3-mt 34542
config output-vector-file MMc-5-1.5-results/0.vec
config output-scalar-file MMc-5-1.5-results/0.sca

vector 0 MMc.mmc queueLength:vector ETV
attr interpolationmode none
attr recordingmode vector
attr title "queue length"
vector 1 MMc.mmc util:vector ETV
attr interpolationmode none
attr recordingmode vector
attr title resources
0	0	0	0
0	65	22.101482563879	1
0	66	22.669208095042	0
0	121	31.686473698212	1
0	122	31.741980053498	0
0	128	32.253982105694	1
0	129	32.581170504186	0
0	135	33.05479351952	1
0	136	33.186473698212	0
0	163	36.98967184937	1
0	164	37.509436994888	0
0	240	50.576159441958	1
0	241	50.72379326329	0
0	275	56.218806292674	1
0	277	56.231073266419	2
0	278	56.231073266419	3
0	279	56.249974355476	2
0	280	56.249974355476	1
0	284	56.296290095151	2
0	285	56.296290095151	3
0	287	56.97693774529	4
0	288	56.97693774529	5
0	289	57.465145125996	4
0	290	57.465145125996	3
0	294	57.477671840586	4
0	295	57.477671840586	5
0	296	57.718806292674	4
0	298	57.749974355476	3
0	299	57.749974355476	2
0	303	58.876658851518	3
0	304	58.876658851518	4
0	305	58.965145125996	3
0	306	58.965145125996	2
0	309	59.218806292674	1
0	311	59.249974355476	0
0	317	60.310390841982	1
0	318	60.465145125996	0
0	331	61.237325879125	1
0	333	61.749294964234	2
0	334	61.749294964234	3
0	335	61.810390841982	2
0	338	61.82574469733	3
0	339	61.82574469733	4
0	340	61.965145125996	3
0	342	62.703616840045	2
0	343	62.703616840045	1
0	346	62.737325879125	0
0	349	63.237978455107	1
0	350	63.237978455107	2
0	351	63.310390841982	1
0	353	63.465145125996	0
0	401	70.173449521157	1
0	402	71.033887615218	0
0	429	73.882956545644	1
0	430	74.105524313371	0
0	450	76.214288934124	1
0	451	76.745789727471	0
0	471	78.497600471341	1
0	472	78.52098909795	0
0	548	93.407258490326	1
0	549	93.798432444039	0
0	555	94.277109001242	1
0	556	94.447101552057	0
0	576	96.334872258645	1
0	577	96.637930220759	0
0	583	97.748632478144	1
0	584	97.785702209468	0
0	758	130.295727909136	1
0	759	130.651230091505	0
0	926	158.773514000884	1
0	927	159.019226758553	0
0	1045	180.010158287018	1
0	1046	180.040256174839	0
0	1080	185.191639444553	1
0	1082	185.411389930909	2
0	1083	185.411389930909	3
0	1084	185.582212804271	2
0	1085	185.582212804271	1
0	1088	186.151983420703	0
0	1094	186.205522399462	1
0	1095	186.691639444553	0
0	1105	187.623535857474	1
0	1106	187.623535857474	2
0	1107	187.651983420703	1
0	1109	187.705522399462	0
0	1164	197.089146946297	1
0	1166	197.646080474006	2
0	1167	197.646080474006	3
0	1168	198.137915025243	2
0	1169	198.137915025243	1
0	1173	198.367549567486	2
0	1174	198.367549567486	3
0	1175	198.456046888742	2
0	1176	198.456046888742	1
0	1179	198.589146946297	0
0	1234	206.892828334677	1
0	1235	207.330667807818	0
0	1290	217.243277654213	1
0	1291	217.750795764492	0
0	1297	217.9431383242	1
0	1299	218.576455043241	2
0	1300	218.576455043241	3
0	1301	218.606062977102	2
0	1302	218.606062977102	1
0	1305	218.743277654213	0
0	1332	222.805882431488	1
0	1333	222.855866052974	0
0	1451	244.445411465728	1
0	1452	244.769918362037	0
0	1458	245.229619028738	1
0	1459	245.59085966279	0
0	1479	247.895384583898	1
0	1480	248.643726410695	0
0	1500	250.901097295467	1
0	1501	250.915964368055	0
0	1521	253.64309002859	1
0	1522	253.689469782612	0
0	1591	264.146013348682	1
0	1592	264.734889932866	0
0	1640	271.669310462932	1
0	1641	272.021247729318	0
0	1647	272.218264250378	1
0	1648	272.821924423491	0
0	1689	277.454974122014	1
0	1690	277.824503312146	0
0	1710	279.843871427009	1
0	1712	280.233790261448	2
0	1713	280.233790261448	3
0	1714	280.431062838924	2
0	1715	280.431062838924	1
0	1718	280.852641546488	0
0	1724	281.201538145469	1
0	1725	281.343871427009	0
0	1794	290.458369657163	1
0	1796	291.029445995056	2
0	1797	291.029445995056	3
0	1798	291.096966486864	2
0	1799	291.096966486864	1
0	1803	291.177455721203	2
0	1804	291.177455721203	3
0	1805	291.809291769544	2
0	1806	291.809291769544	1
0	1809	291.958369657163	0
0	1812	292.551172690933	1
0	1813	292.551172690933	2
0	1814	292.596966486864	1
0	1815	292.596966486864	0
0	1899	306.153700495824	1
0	1900	306.237773195275	0
0	1920	309.124754358632	1
0	1921	309.21258950728	0
0	1955	314.984117065761	1
0	1956	315.008801504029	0
0	2018	324.13582526423	1
0	2020	324.973407073871	2
0	2021	324.973407073871	3
0	2022	325.134763292633	2
0	2023	325.134763292633	1
0	2026	325.473190371127	0
0	2036	326.435910209237	1
0	2037	326.435910209237	2
0	2038	326.634763292633	1
0	2039	326.634763292633	0
0	2060	329.445899246688	1
0	2061	329.770268549621	0
0	2095	333.844369437014	1
0	2096	334.044575143828	0
0	2123	340.97587715268	1
0	2124	340.99386962551	0
0	2214	355.60754084502	1
0	2215	355.880285753691	0
0	2249	361.114210763095	1
0	2250	361.322900301185	0
0	2256	362.038923489897	1
0	2257	362.2827620207	0
0	2312	371.946133504649	1
0	2313	372.757694658336	0
0	2361	380.104857094789	1
0	2362	380.158709787315	0
0	2410	386.743061833433	1
0	2411	387.583342671753	0
0	2431	389.464279730755	1
0	2432	389.537206130471	0
0	2438	390.345596148585	1
0	2439	390.544305292847	0
0	2508	400.667963135697	1
0	2509	400.826372318416	0
0	2606	415.49307812206	1
0	2607	415.694877379896	0
0	2613	416.065021288642	1
0	2614	416.446500548111	0
0	2641	419.73121848099	1
0	2642	420.071124660828	0
0	2781	445.324181298866	1
0	2782	445.658669040761	0
0	2809	449.061406879994	1
0	2810	449.493550051513	0
0	2816	449.921693096187	1
0	2817	450.064500352614	0
0	2844	454.239427721498	1
0	2845	454.350442088386	0
0	2851	454.995905923957	1
0	2852	455.576819537907	0
0	2872	457.986729237977	1
0	2873	458.535015902342	0
0	2893	460.676635837174	1
0	2894	461.007038730647	0
0	2907	461.778475468139	1
0	2908	462.176635837174	0
0	2956	467.922085684167	1
0	2957	468.106256766914	0
0	2963	468.719738386534	1
0	2964	469.114106582386	0
0	2998	472.931419945521	1
0	3000	473.453047941042	2
0	3001	473.453047941042	3
0	3002	473.59852870231	2
0	3003	473.59852870231	1
0	3006	474.312234712208	0
0	3016	474.596594610029	1
0	3017	474.596594610029	2
0	3018	475.09852870231	1
0	3019	475.09852870231	0
0	3023	475.513276495618	1
0	3024	475.513276495618	2
0	3025	475.812234712208	1
0	3027	475.938230184941	0
0	3068	481.520206184598	1
0	3069	481.690112209867	0
0	3075	482.163564296475	1
0	3076	482.696168542383	0
0	3124	492.142500406634	1
0	3125	492.320109954787	0
0	3173	498.766625111466	1
0	3174	498.996858685502	0
0	3208	503.333531983773	1
0	3209	503.652865585434	0
0	3271	513.33513371297	1
0	3272	513.415926873243	0
0	3278	514.394935291489	1
0	3279	514.659172802202	0
0	3299	517.278791485974	1
0	3300	517.583948914633	0
0	3306	517.703824217473	1
0	3307	518.395453323324	0
0	3348	523.790637702277	1
0	3349	524.069580101372	0
0	3355	524.56885630389	1
0	3356	524.838935181936	0
0	3362	525.024492737702	1
0	3363	525.290637702277	0
0	3383	528.090452488659	1
0	3384	528.151643867134	0
0	3390	528.53606083268	1
0	3391	528.667305407946	0
0	3397	529.522252223394	1
0	3398	529.590452488659	0
0	3404	529.867509678846	1
0	3405	530.03606083268	0
0	3411	530.259518363729	1
0	3413	530.278961139234	2
0	3414	530.278961139234	3
0	3415	531.022252223394	2
0	3417	531.090452488659	1
0	3419	531.367509678846	0
0	3422	531.439578318697	1
0	3423	531.439578318697	2
0	3424	531.53606083268	1
0	3426	531.759518363729	0
0	3453	535.331419592178	1
0	3454	535.62382619227	0
0	3460	535.854618331836	1
0	3461	536.185669056967	0
0	3467	536.303941619145	1
0	3468	536.831419592178	0
0	3509	541.728696464142	1
0	3510	541.787911431223	0
0	3516	542.165728063859	1
0	3517	542.43640683287	0
0	3544	545.502666530011	1
0	3545	545.868888988076	0
0	3614	556.638122122525	1
0	3615	557.136861352576	0
0	3621	557.577888238953	1
0	3622	557.84490773182	0
0	3642	559.774480630125	1
0	3643	559.883181842607	0
0	3719	572.028690516372	1
0	3720	572.176630475884	0
0	3726	572.661674870393	1
0	3727	573.519717375485	0
0	3740	574.115354570689	1
0	3741	574.161674870393	0
0	3754	575.54907871132	1
0	3755	575.615354570689	0
0	3761	575.921321790971	1
0	3762	576.904437988022	0
0	3768	576.926217385092	1
0	3769	577.04907871132	0
0	3779	578.002343486688	1
0	3780	578.002343486688	2
0	3781	578.404437988022	1
0	3783	578.426217385092	0
0	3824	583.71928053628	1
0	3825	584.153248418754	0
0	3880	592.292994626414	1
0	3881	592.950811732669	0
0	3978	609.039528243396	1
0	3980	609.580848307281	2
0	3981	609.580848307281	3
0	3982	609.83604636563	2
0	3983	609.83604636563	1
0	3986	609.897709241143	0
0	4006	612.575804501915	1
0	4007	612.729200036344	0
0	4013	613.06213243276	1
0	4014	613.753433036152	0
0	4160	636.312320972416	1
0	4161	636.534048506612	0
0	4251	650.569600859209	1
0	4252	651.134686840525	0
0	4370	671.364575175885	1
0	4371	671.657933973578	0
0	4377	672.078004726036	1
0	4378	672.310147608757	0
0	4412	676.54956888126	1
0	4413	677.088212076267	0
0	4461	685.072260390174	1
0	4462	685.223397982515	0
0	4503	692.258558949405	1
0	4504	692.446687046797	0
0	4510	692.732259235884	1
0	4511	693.447589864926	0
0	4538	696.528526550098	1
0	4540	696.53154229215	2
0	4541	696.53154229215	3
0	4543	696.885729635892	4
0	4544	696.885729635892	5
0	4545	697.424249427813	4
0	4546	697.424249427813	3
0	4549	697.726571346032	2
0	4550	697.726571346032	1
0	4553	698.028526550098	0
0	4556	698.680916732365	1
0	4557	698.680916732365	2
0	4558	698.924249427813	1
0	4559	698.924249427813	0
0	4629	711.392756284905	1
0	4630	711.977159773329	0
0	4713	726.571637659755	1
0	4714	727.122786328137	0
0	4839	748.138796310281	1
0	4840	748.321250556998	0
0	4895	758.224970047148	1
0	4896	758.415363748971	0
0	4965	769.131717892019	1
0	4966	769.629799043399	0
0	5077	786.96128705292	1
0	5078	787.38849329494	0
0	5105	790.20714468665	1
0	5107	790.379923948614	2
0	5108	790.379923948614	3
0	5109	790.387294153123	2
0	5110	790.387294153123	1
0	5113	791.328816914263	0
0	5196	803.388956652618	1
0	5197	803.920852728083	0
0	5203	804.737488820072	1
0	5204	804.785413595835	0
0	5231	807.416970845099	1
0	5233	808.389976286406	2
0	5234	808.389976286406	3
0	5235	808.421589390914	2
0	5236	808.421589390914	1
0	5239	808.479837467909	0
0	5385	833.429426611284	1
0	5386	833.939558186508	0
0	5392	834.161155675397	1
0	5394	834.608043176442	2
0	5395	834.608043176442	3
0	5396	834.627849591394	2
0	5397	834.627849591394	1
0	5400	834.929426611284	0
0	5420	836.941466148569	1
0	5421	837.429224856838	0
0	5427	837.590751327917	1
0	5428	838.381948729013	0
0	5490	846.451587805866	1
0	5491	846.56939523632	0
0	5497	847.738380570907	1
0	5498	847.863424947857	0
0	5511	848.645863652232	1
0	5512	849.238380570907	0
0	5588	862.6828374051	1
0	5589	862.954401780112	0
0	5595	863.40284547635	1
0	5596	863.932180174528	0
0	5602	863.99946605491	1
0	5603	864.1828374051	0
0	5606	864.411298643471	1
0	5607	864.411298643471	2
0	5608	864.454401780112	1
0	5610	864.90284547635	0
0	5613	865.045973435969	1
0	5614	865.045973435969	2
0	5615	865.432180174528	1
0	5617	865.49946605491	0
0	5630	866.826298348179	1
0	5631	866.932180174528	0
0	5658	871.043820659224	1
0	5660	871.528865245677	2
0	5661	871.528865245677	3
0	5662	871.860207927024	2
0	5663	871.860207927024	1
0	5666	871.898052987021	0
0	5707	877.503122734902	1
0	5708	877.542337644266	0
0	5714	878.375686201375	1
0	5715	878.49386113275	0
0	5756	883.742174250505	1
0	5757	883.833209797905	0
0	5763	884.593983473601	1
0	5764	884.813690676319	0
0	5854	899.090846896229	1
0	5855	899.118833579374	0
0	5966	917.399307838356	1
0	5967	917.919028970102	0
0	5994	921.336527519181	1
0	5995	921.710753553299	0
0	6001	922.010656283341	1
0	6002	922.50095224612	0
0	6155	944.859390149531	1
0	6157	945.57215025912	2
0	6158	945.57215025912	3
0	6159	945.641782051772	2
0	6160	945.641782051772	1
0	6163	945.870385915435	0
0	6169	946.24151777299	1
0	6170	946.359390149531	0
0	6211	952.323363905004	1
0	6212	953.109768647098	0
0	6232	955.196594171552	1
0	6233	955.621116233186	0
0	6288	962.982867527331	1
0	6289	962.999216301933	0
0	6414	983.545442876297	1
0	6415	983.785134636235	0
0	6442	986.335815090061	1
0	6444	987.336777684191	2
0	6445	987.336777684191	3
0	6446	987.360557787706	2
0	6447	987.360557787706	1
0	6450	987.603441246114	0
0	6484	992.571468064372	1
0	6485	992.690492527268	0
0	6512	996.30896009627	1
0	6513	997.118867729333	0
0	6519	997.301014664684	1
0	6520	997.560741883228	0
0	6533	998.658478738824	1
0	6534	998.801014664684	0
0	6582	1006.45934565644	1
0	6583	1006.769465918808	0
0	6589	1007.183578058061	1
0	6590	1007.288118783992	0
0	6596	1007.823670666877	1
0	6597	1007.95934565644	0
0	6600	1008.069085302964	1
0	6601	1008.069085302964	2
0	6602	1008.269465918808	1
0	6604	1008.683578058061	0
0	6607	1008.779836031983	1
0	6608	1008.779836031983	2
0	6609	1008.788118783992	1
0	6611	1009.323670666877	0
0	6666	1018.004503096483	1
0	6667	1018.275191080222	0
0	6673	1018.621980461144	1
0	6674	1018.812443246518	0
0	6792	1039.627252704913	1
0	6793	1039.867508338124	0
0	6813	1042.565588203977	1
0	6814	1043.150823359337	0
0	6827	1043.773330272888	1
0	6828	1044.065588203977	0
0	6834	1044.854704171628	1
0	6835	1045.064617254417	0
0	6953	1071.120227916273	1
0	6954	1071.255453992331	0
0	6981	1075.11679574929	1
0	6982	1075.305494710513	0
0	7002	1078.019577442263	1
0	7003	1078.575924965532	0
0	7016	1079.39822236241	1
0	7017	1079.519577442263	0
0	7051	1085.853988390312	1
0	7052	1086.101411252042	0
0	7058	1086.352866942614	1
0	7059	1086.730206629595	0
0	7065	1087.301246352769	1
0	7066	1087.353988390312	0
0	7072	1087.706880860669	1
0	7073	1087.852866942614	0
0	7079	1088.36067254896	1
0	7080	1088.801246352769	0
0	7086	1088.963518538812	1
0	7087	1089.206880860669	0
0	7233	1116.828881397698	1
0	7234	1117.200390893788	0
0	7282	1124.967315509299	1
0	7283	1125.670479401057	0
0	7289	1125.851174635986	1
0	7291	1126.029234370007	2
0	7292	1126.029234370007	3
0	7293	1126.383952890532	2
0	7294	1126.383952890532	1
0	7297	1126.467315509299	0
0	7345	1133.333403506989	1
0	7346	1134.011342174386	0
0	7352	1134.295772008668	1
0	7353	1134.806986072249	0
0	7394	1139.815081572317	1
0	7395	1140.003363984361	0
0	7415	1142.514731151675	1
0	7416	1142.893043307621	0
0	7422	1143.244772821653	1
0	7423	1143.971490935734	0
0	7555	1163.257512613564	1
0	7556	1163.344347331462	0
0	7562	1163.620067052068	1
0	7563	1164.229277992667	0
0	7569	1164.628536248689	1
0	7570	1164.757512613564	0
0	7632	1173.669108516573	1
0	7633	1173.790243240014	0
0	7639	1174.842545138639	1
0	7640	1175.000815468715	0
0	7730	1190.084802513846	1
0	7731	1190.495787051484	0
0	7737	1191.015885906695	1
0	7738	1191.530702015208	0
0	7793	1199.999081838607	1
0	7794	1201.123173692509	0
0	7849	1208.31856591883	1
0	7850	1208.602126456515	0
0	7884	1213.564466854657	1
0	7885	1213.802344164547	0
0	7919	1217.6840136469	1
0	7920	1217.854787425405	0
0	7940	1219.527374785991	1
0	7942	1219.671022443737	2
0	7943	1219.671022443737	3
0	7945	1219.995947355269	4
0	7946	1219.995947355269	5
0	7947	1220.245464291614	4
0	7948	1220.245464291614	3
0	7951	1220.75628641417	2
0	7952	1220.75628641417	1
0	7956	1221.006399364565	2
0	7957	1221.006399364565	3
0	7958	1221.027374785991	2
0	7961	1221.146214143862	3
0	7962	1221.146214143862	4
0	7963	1221.745464291614	3
0	7964	1221.745464291614	2
0	7968	1222.17214587932	3
0	7969	1222.17214587932	4
0	7970	1222.25628641417	3
0	7971	1222.25628641417	2
0	7975	1222.33925315825	3
0	7976	1222.33925315825	4
0	7978	1222.39661048696	5
0	7979	1222.39661048696	6
0	7980	1222.527374785991	5
0	7983	1223.203572635956	6
0	7984	1223.203572635956	7
0	7985	1223.245464291614	6
0	7986	1223.245464291614	5
0	7990	1223.38402945544	6
0	7991	1223.38402945544	7
0	7992	1223.75628641417	6
0	7993	1223.75628641417	5
0	7996	1224.027374785991	4
0	7999	1224.492712233543	5
0	8000	1224.492712233543	6
0	8001	1224.745464291614	5
0	8002	1224.745464291614	4
0	8005	1225.25628641417	3
0	8006	1225.25628641417	2
0	8009	1225.527374785991	1
0	8012	1225.603071761873	2
0	8013	1225.603071761873	3
0	8014	1226.245464291614	2
0	8015	1226.245464291614	1
0	8018	1226.75628641417	0
0	8108	1240.66028187293	1
0	8110	1241.437455040221	2
0	8111	1241.437455040221	3
0	8112	1241.625512031256	2
0	8113	1241.625512031256	1
0	8116	1242.035249334127	0
0	8122	1242.115412942441	1
0	8123	1242.16028187293	0
0	8143	1245.019957268112	1
0	8144	1245.451198652472	0
0	8164	1247.77924659931	1
0	8165	1247.996650820004	0
0	8171	1248.271964798114	1
0	8172	1248.915382651524	0
0	8213	1254.237120317648	1
0	8214	1254.528362281247	0
0	8248	1259.763816083721	1
0	8249	1259.891363992948	0
0	8283	1263.850203029599	1
0	8284	1263.925814317995	0
0	8290	1263.934379646987	1
0	8292	1264.47997330187	2
0	8293	1264.47997330187	3
0	8294	1264.775014636049	2
0	8295	1264.775014636049	1
0	8298	1265.350203029599	0
0	8308	1266.176501229346	1
0	8309	1266.176501229346	2
0	8310	1266.275014636049	1
0	8311	1266.275014636049	0
0	8346	1272.642196566444	1
0	8347	1272.722913025637	0
0	8360	1273.938573484033	1
0	8361	1274.142196566444	0
0	8367	1275.158580336159	1
0	8368	1275.279665922581	0
0	8430	1284.725720279506	1
0	8431	1284.926479843968	0
0	8549	1301.64371243369	1
0	8550	1301.995139730746	0
0	8577	1305.699135908292	1
0	8578	1305.780312269624	0
0	8584	1306.073231243824	1
0	8585	1306.65597196492	0
0	8591	1306.896956353313	1
0	8592	1307.199135908292	0
0	8724	1329.892636146064	1
0	8725	1330.277623933737	0
0	8745	1333.158502545409	1
0	8746	1333.274774609859	0
0	8773	1337.865849578601	1
0	8774	1338.0224230466	0
0	8780	1338.535143887452	1
0	8781	1338.805458657865	0
0	8787	1339.132609332763	1
0	8788	1339.365849578601	0
0	8829	1345.946738506723	1
0	8830	1346.060685627108	0
0	8836	1346.238895500733	1
0	8837	1346.805498712917	0
0	8885	1354.43197073772	1
0	8886	1354.436903732865	0
0	8920	1359.550557802381	1
0	8921	1360.034313120985	0
0	8927	1360.562357871719	1
0	8928	1360.909421472714	0
0	8948	1363.968958748298	1
0	8949	1363.971534805559	0
0	8997	1370.211719149405	1
0	8998	1370.594568461845	0
0	9095	1390.243534921776	1
0	9096	1390.407569687619	0
0	9130	1394.590051416662	1
0	9131	1395.118039079909	0
0	9235	1412.567636400307	1
0	9236	1412.697196601709	0
0	9340	1434.584842617459	1
0	9341	1434.874855442622	0
0	9347	1435.886543751802	1
0	9348	1435.93123962308	0
0	9452	1450.907823514082	1
0	9453	1451.063266217496	0
0	9494	1457.934850129605	1
0	9495	1457.942559074418	0
0	9508	1459.19298315642	1
0	9509	1459.434850129605	0
0	9550	1465.352189782022	1
0	9552	1466.01729111456	2
0	9553	1466.01729111456	3
0	9554	1466.41708088034	2
0	9555	1466.41708088034	1
0	9558	1466.508337767031	0
0	9641	1479.691637423188	1
0	9642	1480.682839183425	0
0	9711	1490.380083653554	1
0	9712	1490.52372377633	0
0	9718	1491.282525122856	1
0	9719	1491.590698822682	0
0	9739	1494.211769976216	1
0	9740	1494.332268790056	0
0	9746	1495.225690058611	1
0	9747	1495.285958945477	0
0	9774	1499.762643811347	1
0	9775	1499.852516039766	0
0	9781	1500.755443672717	1
0	9782	1500.776581126091	0
0	9872	1515.261883866191	1
0	9873	1515.30755243345	0
0	9879	1515.543264087383	1
0	9880	1516.463501611969	0
0	9886	1516.557283204158	1
0	9887	1516.761883866191	0
0	9893	1516.904549878557	1
0	9894	1517.043264087383	0
0	9928	1521.757506707818	1
0	9930	1521.960938208065	2
0	9931	1521.960938208065	3
0	9932	1521.999907746021	2
0	9933	1521.999907746021	1
0	9937	1522.228868888542	2
0	9938	1522.228868888542	3
0	9939	1522.550928962178	2
0	9940	1522.550928962178	1
0	9943	1523.257506707818	0
0	10054	1539.497309439042	1
0	10055	1539.860198623668	0
0	10061	1540.497931453873	1
0	10062	1540.66970439401	0
0	10131	1550.949757133827	1
0	10132	1550.972201150388	0
0	10187	1562.051818611363	1
0	10188	1562.679405198988	0
0	10264	1574.542956640921	1
0	10265	1574.773118413812	0
0	10271	1574.937192668058	1
0	10272	1575.391764278162	0
0	10341	1585.601373420273	1
0	10342	1585.676285474762	0
0	10348	1585.899873706994	1
0	10350	1586.903437108426	2
0	10351	1586.903437108426	3
0	10352	1587.04261137934	2
0	10353	1587.04261137934	1
0	10357	1587.048397165505	2
0	10358	1587.048397165505	3
0	10359	1587.101373420273	2
0	10361	1587.176285474762	1
0	10363	1587.399873706994	0
0	10366	1587.939955215136	1
0	10367	1587.939955215136	2
0	10368	1588.54261137934	1
0	10369	1588.54261137934	0
0	10397	1592.758425608795	1
0	10398	1593.62848351817	0
0	10418	1595.509058888246	1
0	10419	1595.715619808711	0
0	10439	1597.415600278111	1
0	10440	1597.626001760219	0
0	10481	1602.991033987218	1
0	10482	1603.446277844763	0
0	10565	1616.825364615604	1
0	10566	1617.099993975391	0
0	10572	1617.451600180054	1
0	10573	1617.630882747345	0
0	10628	1627.963511282922	1
0	10629	1627.985503004189	0
0	10635	1628.710483959018	1
0	10636	1629.109169492828	0
0	10782	1653.465231978146	1
0	10783	1653.759392548618	0
0	10789	1654.146804403724	1
0	10790	1654.336493262443	0
0	10845	1662.503739489345	1
0	10846	1662.554469321423	0
0	10852	1663.577133702509	1
0	10853	1663.808743116612	0
0	10950	1679.442671434858	1
0	10951	1680.078026121174	0
0	10971	1682.117187981025	1
0	10972	1682.367566296454	0
0	10978	1682.571131452026	1
0	10979	1683.179780976614	0
0	10985	1683.570554342383	1
0	10986	1683.617187981025	0
0	11013	1686.398345605271	1
0	11015	1686.486910390775	2
0	11016	1686.486910390775	3
0	11017	1687.161346343128	2
0	11018	1687.161346343128	1
0	11022	1687.22280874486	2
0	11023	1687.22280874486	3
0	11024	1687.601924871042	2
0	11025	1687.601924871042	1
0	11028	1687.898345605271	0
0	11090	1697.534312806636	1
0	11091	1697.872008100675	0
0	11097	1698.2451284135	1
0	11098	1698.611207422783	0
0	11104	1698.927134806792	1
0	11105	1699.034312806636	0
0	11108	1699.286124438308	1
0	11109	1699.286124438308	2
0	11110	1699.372008100675	1
0	11113	1699.584411649778	2
0	11114	1699.584411649778	3
0	11116	1699.617130738812	4
0	11117	1699.617130738812	5
0	11118	1699.7451284135	4
0	11120	1700.111207422783	3
0	11122	1700.427134806792	2
0	11124	1700.534312806636	1
0	11127	1700.77532162358	2
0	11128	1700.77532162358	3
0	11129	1700.872008100675	2
0	11131	1701.2451284135	1
0	11134	1701.443837734872	2
0	11135	1701.443837734872	3
0	11136	1701.611207422783	2
0	11138	1701.927134806792	1
0	11140	1702.034312806636	0
0	11181	1708.412995681084	1
0	11182	1708.657171108462	0
0	11188	1708.667481118986	1
0	11190	1708.854972267146	2
0	11191	1708.854972267146	3
0	11192	1709.214478982627	2
0	11193	1709.214478982627	1
0	11196	1709.912995681084	0
0	11199	1710.066523702667	1
0	11200	1710.066523702667	2
0	11201	1710.157171108462	1
0	11203	1710.167481118986	0
0	11244	1715.274339060472	1
0	11245	1715.53888331992	0
0	11405	1743.010983760706	1
0	11406	1743.50762011939	0
0	11412	1744.132596246874	1
0	11413	1744.286173791561	0
0	11482	1754.372907821173	1
0	11483	1755.165027161328	0
0	11538	1765.278035735109	1
0	11539	1765.737949250041	0
0	11545	1766.066765426907	1
0	11546	1766.417974898566	0
0	11622	1778.175555505562	1
0	11623	1778.506380724901	0
0	11699	1790.602845583664	1
0	11700	1790.822223954204	0
0	11727	1794.666617827458	1
0	11728	1795.337071920138	0
0	11734	1795.977517826468	1
0	11736	1796.138929381863	2
0	11737	1796.138929381863	3
0	11738	1796.157732504861	2
0	11739	1796.157732504861	1
0	11742	1796.166617827458	0
0	11748	1797.188783056901	1
0	11749	1797.477517826468	0
0	11769	1799.156012343897	1
0	11770	1799.422261134976	0
0	11776	1799.839553008986	1
0	11777	1800.205052124681	0
0	11860	1811.620609680254	1
0	11861	1812.458561868832	0
0	11867	1812.904543210426	1
0	11868	1812.969481432988	0
0	11878	1813.731072952288	1
0	11879	1813.731072952288	2
0	11880	1813.958561868832	1
0	11882	1814.404543210426	0
0	11885	1814.405060298739	1
0	11886	1814.405060298739	2
0	11887	1814.469481432988	1
0	11889	1815.192615128157	0
0	11965	1827.46060075239	1
0	11966	1828.017863846114	0
0	11972	1828.220262606286	1
0	11973	1828.25974810049	0
0	11993	1830.915946444277	1
0	11994	1830.940976754927	0
0	12000	1831.141592050024	1
0	12002	1831.661978329788	2
0	12003	1831.661978329788	3
0	12004	1832.099687028845	2
0	12005	1832.099687028845	1
0	12009	1832.270895108839	2
0	12010	1832.270895108839	3
0	12011	1832.415946444277	2
0	12013	1832.440976754927	1
0	12015	1832.641592050024	0
0	12063	1839.61845924376	1
0	12064	1840.073159135673	0
0	12126	1852.133799057569	1
0	12127	1852.250316711391	0
0	12133	1852.631350556705	1
0	12135	1852.928416624751	2
0	12136	1852.928416624751	3
0	12137	1852.935920691599	2
0	12138	1852.935920691599	1
0	12141	1853.633799057569	0
0	12147	1853.807454722089	1
0	12148	1854.131350556705	0
0	12151	1854.219698190155	1
0	12152	1854.219698190155	2
0	12153	1854.435920691599	1
0	12154	1854.435920691599	0
0	12158	1854.987269747669	1
0	12159	1854.987269747669	2
0	12160	1855.133799057569	1
0	12162	1855.307454722089	0
0	12231	1867.446793067811	1
0	12232	1867.886080373149	0
0	12315	1879.496461968831	1
0	12316	1879.563581576752	0
0	12364	1884.803107982219	1
0	12365	1885.28284010035	0
0	12371	1885.413912316985	1
0	12372	1886.083608588911	0
0	12378	1886.174518223504	1
0	12379	1886.303107982219	0
0	12389	1887.549355032335	1
0	12390	1887.549355032335	2
0	12391	1887.583608588911	1
0	12394	1887.607751533924	2
0	12395	1887.607751533924	3
0	12396	1887.674518223504	2
0	12398	1887.803107982219	1
0	12400	1888.606257335711	0
0	12427	1892.134148138255	1
0	12428	1892.34630443375	0
0	12609	1924.472096357824	1
0	12610	1924.550027845552	0
0	12644	1929.735922179995	1
0	12645	1929.766671997349	0
0	12679	1936.261356857112	1
0	12680	1936.675491838936	0
0	12686	1936.790330625268	1
0	12687	1937.253471938407	0
0	12728	1943.02716033853	1
0	12729	1943.189372464612	0
0	12777	1953.274172993604	1
0	12779	1953.686303016692	2
0	12780	1953.686303016692	3
0	12781	1953.708627893833	2
0	12782	1953.708627893833	1
0	12785	1954.699109456445	0
0	12826	1960.893141777916	1
0	12827	1960.974146465072	0
0	12847	1963.851384204019	1
0	12848	1964.086809312132	0
0	12854	1964.099307240588	1
0	12856	1964.390270865473	2
0	12857	1964.390270865473	3
0	12859	1965.160140883124	4
0	12860	1965.160140883124	5
0	12861	1965.31104578307	4
0	12862	1965.31104578307	3
0	12865	1965.351384204019	2
0	12867	1965.586809312132	1
0	12869	1965.599307240588	0
0	12872	1966.471154614158	1
0	12873	1966.471154614158	2
0	12874	1966.81104578307	1
0	12875	1966.81104578307	0
0	12896	1970.091311201963	1
0	12897	1970.460981124742	0
0	13001	1986.331876310012	1
0	13002	1986.478804967667	0
0	13008	1987.327797602818	1
0	13009	1987.603740880479	0
0	13064	1995.786421165545	1
0	13065	1996.408346765052	0
0	13106	2001.550963730921	1
0	13107	2002.040817313989	0
0	13162	2011.266561555648	1
0	13163	2011.965926092528	0
0	13337	2040.066277747661	1
0	13338	2040.688425214481	0
0	13344	2040.779180403341	1
0	13345	2041.273414646813	0
0	13351	2041.447015996086	1
0	13352	2041.566277747661	0
0	13379	2046.433768062446	1
0	13380	2046.593730414831	0
0	13386	2046.807706337725	1
0	13387	2046.974074829856	0
0	13421	2051.851483131676	1
0	13422	2052.194270157188	0
0	13477	2059.370991295926	1
0	13479	2059.774375287955	2
0	13480	2059.774375287955	3
0	13481	2060.42779180648	2
0	13482	2060.42779180648	1
0	13485	2060.472345210598	0
0	13495	2061.820990301277	1
0	13496	2061.820990301277	2
0	13497	2061.92779180648	1
0	13498	2061.92779180648	0
0	13505	2062.599257232101	1
0	13506	2062.769183613872	0
0	13512	2062.87339643731	1
0	13513	2063.42779180648	0
0	13575	2074.68072527254	1
0	13576	2074.718727205267	0
0	13603	2077.952597874278	1
0	13604	2078.162772398037	0
0	13610	2078.477842016093	1
0	13612	2079.285312378504	2
0	13613	2079.285312378504	3
0	13614	2079.389609200247	2
0	13615	2079.389609200247	1
0	13618	2079.452597874278	0
0	13687	2090.541491628566	1
0	13688	2091.342234273906	0
0	13694	2091.378185487719	1
0	13695	2091.970889629819	0
0	13806	2106.633835376347	1
0	13807	2107.205899202076	0
0	13883	2118.487100059114	1
0	13884	2118.528766744444	0
0	13890	2119.410846217043	1
0	13891	2119.654010632194	0
0	13897	2119.790337173083	1
0	13898	2119.987100059114	0
0	13932	2124.515817251912	1
0	13933	2124.961569773286	0
0	14016	2138.179968016559	1
0	14017	2138.18274712526	0
0	14023	2138.828547285564	1
0	14024	2139.021358480243	0
0	14065	2144.531572323522	1
0	14066	2144.823529835861	0
0	14072	2145.460546907586	1
0	14073	2145.620954895975	0
0	14079	2145.740992978186	1
0	14080	2146.031572323522	0
0	14086	2146.352221955071	1
0	14087	2146.960546907586	0
0	14093	2147.188846674826	1
0	14094	2147.240992978186	0
0	14100	2147.534855916	1
0	14101	2147.852221955071	0
0	14104	2148.20861843412	1
0	14105	2148.20861843412	2
0	14106	2148.460546907586	1
0	14108	2148.688846674826	0
0	14149	2154.659731737629	1
0	14150	2154.672535778377	0
0	14212	2164.747052899836	1
0	14213	2164.833430448182	0
0	14233	2167.113350555286	1
0	14234	2167.791327332655	0
0	14282	2174.502567529092	1
0	14283	2174.607038123116	0
0	14317	2178.738031975545	1
0	14318	2179.207881379969	0
0	14345	2182.156521072348	1
0	14346	2182.351397255831	0
0	14366	2184.059137532493	1
0	14368	2184.765509299871	2
0	14369	2184.765509299871	3
0	14370	2185.037963650651	2
0	14371	2185.037963650651	1
0	14374	2185.305936867336	0
0	14380	2185.332753114013	1
0	14381	2185.559137532493	0
0	14401	2189.054686137022	1
0	14402	2189.560980368351	0
0	14457	2197.549858313772	1
0	14458	2198.043275138845	0
0	14464	2198.723081416161	1