version 3
run MMc-21-20221127-11:38:41-7588
attr configname MMc
attr datetime 20221127-11:38:41
attr datetimef 20221127-113841
attr experiment MMc
attr inifile omnetpp.ini
attr iterationvars "$mean=uniform(0.5s, 1.5s), $dev=0.5*(uniform(0.5s, 1.5s)), $time=1.5, $num=5, $0=45732, $1=35463, $2=67563"
attr iterationvarsd mean=uniform(0.5s,_1.5s)/dev=0.5#2a(uniform(0.5s,_1.5s))/time=1.5/num=5/45732/35463/67563
attr iterationvarsf mean=uniform(0.5s,_1.5s),dev=0.5#2a(uniform(0.5s,_1.5s)),time=1.5,num=5,45732,35463,67563-
attr measurement "$mean=uniform(0.5s, 1.5s), $dev=0.5*(uniform(0.5s, 1.5s)), $time=1.5, $num=5, $0=45732, $1=35463, $2=67563"
attr network MMc
attr processid 7588
attr repetition 1
attr replication #1
attr resultdir results
attr runnumber 21
attr seedset 21
itervar dev "0.5*(uniform(0.5s, 1.5s))"
itervar mean "uniform(0.5s, 1.5s)"
itervar num 5
itervar time 1.5
config description "MMc module"
config network MMc
config MMc.source.interArrivalTime "truncnormal(uniform(0.5s, 1.5s), 0.5*(uniform(0.5s, 1.5s)))"
config MMc.mmc.serviceTime 1.5s
config MMc.mmc.c 5
config MMc.mmc.capacity 10000
config record-eventlog false
config **.scalar-recording true
config **.vector-recording true
config repeat 4
config seed-1-mt 45732
config seed-2-mt 35463
config seed-3-mt 67563
config output-vector-file MMc-5-1.5-results/1.vec
config output-scalar-file MMc-5-1.5-results/1.sca

vector 0 MMc.mmc queueLength:vector ETV
attr interpolationmode none
attr recordingmode vector
attr title "queue length"
vector 1 MMc.mmc util:vector ETV
attr interpolationmode none
attr recordingmode vector
attr title resources
0	0	0	0
0	23	12.674818921733	1
0	24	13.094175923589	0
0	30	13.882431348269	1
0	31	13.906930210974	0
0	65	18.981467071858	1
0	66	18.991462917569	0
0	184	40.144780833888	1
0	185	40.40589283319	0
0	191	40.665771999242	1
0	192	41.504963714027	0
0	212	43.619182416374	1
0	213	43.65311782917	0
0	408	75.85231474635	1
0	409	76.015863948671	0
0	415	76.130067260386	1
0	416	76.722064581736	0
0	422	77.118448219101	1
0	423	77.35231474635	0
0	426	77.37439023227	1
0	427	77.37439023227	2
0	428	77.515863948671	1
0	430	77.630067260386	0
0	436	78.3895880767	1
0	437	78.618448219101	0
0	485	85.856361437019	1
0	486	85.938573112567	0
0	492	86.226670230493	1
0	493	86.686015001249	0
0	499	87.194476274502	1
0	500	87.356361437019	0
0	503	87.431500515058	1
0	504	87.431500515058	2
0	505	87.438573112567	1
0	507	87.726670230493	0
0	510	87.950272058784	1
0	511	87.950272058784	2
0	512	88.186015001249	1
0	514	88.694476274502	0
0	517	88.776713616887	1
0	518	88.776713616887	2
0	519	88.856361437019	1
0	521	88.938573112567	0
0	527	89.601382910143	1
0	528	89.686015001249	0
0	534	90.24804138493	1
0	535	90.356361437019	0
0	576	96.635742330992	1
0	577	97.800147535697	0
0	583	97.94110550644	1
0	584	98.08417590024	0
0	702	119.191244615301	1
0	703	119.473795597357	0
0	730	122.877633544059	1
0	731	122.890063361174	0
0	758	126.717246083362	1
0	759	126.815326945301	0
0	765	127.247446131852	1
0	766	127.467852341911	0
0	779	128.650968333511	1
0	780	128.747446131852	0
0	786	129.942365811596	1
0	787	129.948044846966	0
0	835	137.752503889683	1
0	836	138.546059238614	0
0	919	152.337527555767	1
0	920	152.61097222374	0
0	940	155.001744863977	1
0	941	155.504398812363	0
0	947	155.976478082923	1
0	948	156.234190529978	0
0	989	162.851935658118	1
0	990	163.458586705501	0
0	996	163.724185360677	1
0	997	163.936039980335	0
0	1003	164.2772754094	1
0	1004	164.351935658118	0
0	1059	172.861233712738	1
0	1060	173.249613975688	0
0	1073	174.270549991998	1
0	1074	174.361233712738	0
0	1080	175.180295801066	1
0	1081	175.377356502273	0
0	1115	180.596426924479	1
0	1117	180.623018659828	2
0	1118	180.623018659828	3
0	1119	180.841625407377	2
0	1120	180.841625407377	1
0	1123	181.118424129351	0
0	1129	181.406920175476	1
0	1131	182.088332487841	2
0	1132	182.088332487841	3
0	1133	182.096426924479	2
0	1136	182.262605742489	3
0	1137	182.262605742489	4
0	1138	182.341625407377	3
0	1139	182.341625407377	2
0	1142	182.618424129351	1
0	1144	182.906920175476	0
0	1147	183.48394639886	1
0	1148	183.48394639886	2
0	1149	183.596426924479	1
0	1151	183.841625407377	0
0	1192	190.347848936792	1
0	1193	190.579372955772	0
0	1199	191.489501080027	1
0	1200	191.528807269969	0
0	1255	202.281881697514	1
0	1256	202.835195322933	0
0	1276	204.824143449134	1
0	1277	204.85391028562	0
0	1283	205.31909103113	1
0	1284	205.977805061565	0
0	1423	229.987068907729	1
0	1424	230.393155768074	0
0	1577	257.96955714337	1
0	1578	258.046637291964	0
0	1584	259.121953067747	1
0	1585	259.247576976237	0
0	1619	263.216817482681	1
0	1620	263.421647876312	0
0	1731	283.866551517936	1
0	1732	284.479143702721	0
0	1822	298.556712381352	1
0	1823	299.118568270429	0
0	1885	309.083192538119	1
0	1886	309.103474056217	0
0	1892	309.483785455826	1
0	1893	310.125219873947	0
0	1920	313.001216741632	1
0	1921	313.217402579517	0
0	1948	316.111267186587	1
0	1949	316.461361330183	0
0	1955	317.232886922255	1
0	1956	317.417352735951	0
0	1969	318.663193755374	1
0	1970	318.732886922255	0
0	2011	325.070153151559	1
0	2013	325.171599035146	2
0	2014	325.171599035146	3
0	2015	325.29161852761	2
0	2016	325.29161852761	1
0	2019	325.883438543505	0
0	2025	326.413876617559	1
0	2026	326.570153151559	0
0	2046	328.741258558055	1
0	2047	329.269771404497	0
0	2053	329.590943020163	1
0	2055	329.890035913158	2
0	2056	329.890035913158	3
0	2057	329.895659221082	2
0	2058	329.895659221082	1
0	2061	330.241258558055	0
0	2130	339.0899987327	1
0	2131	339.497041485355	0
0	2137	340.145563314178	1
0	2138	340.43886075185	0
0	2207	349.349614854405	1
0	2208	349.977932251782	0
0	2256	355.94520253978	1
0	2257	356.085684273842	0
0	2263	356.622399548709	1
0	2264	357.023449458723	0
0	2284	358.922011079733	1
0	2286	359.248612013093	2
0	2287	359.248612013093	3
0	2288	359.30166351073	2
0	2289	359.30166351073	1
0	2292	359.85718836287	0
0	2319	362.779094466751	1
0	2320	363.240213460808	0
0	2340	365.304446787446	1
0	2341	365.414482368311	0
0	2347	366.559908532472	1
0	2348	366.686711813825	0
0	2361	367.441502148278	1
0	2362	368.059908532472	0
0	2368	368.506176171723	1
0	2369	368.660422514517	0
0	2375	368.727290231501	1
0	2376	368.941502148278	0
0	2382	369.65978234328	1
0	2383	370.006176171723	0
0	2424	376.419366270619	1
0	2425	376.520678246028	0
0	2431	377.181488606039	1
0	2432	377.399971199663	0
0	2536	393.097765127635	1
0	2537	393.324745233704	0
0	2557	395.515825433981	1
0	2558	395.814489307388	0
0	2564	396.539560749423	1
0	2565	396.738025665254	0
0	2669	415.788873642324	1
0	2670	416.024156929024	0
0	2704	421.290690329063	1
0	2705	421.589250437823	0
0	2711	421.678515459295	1
0	2712	422.419764438665	0
0	2739	425.56488241426	1
0	2740	425.814174960394	0
0	2746	425.945365061108	1
0	2747	426.815774186861	0
0	2795	433.110276404172	1
0	2796	433.366950777715	0
0	2823	436.366568561185	1
0	2824	436.679583822406	0
0	2830	437.00253917505	1
0	2831	437.306850176842	0
0	2921	451.386480005273	1
0	2922	451.513757680981	0
0	2942	454.136934762464	1
0	2944	454.256860199034	2
0	2945	454.256860199034	3
0	2946	454.273031371796	2
0	2947	454.273031371796	1
0	2950	454.908993220282	0
0	2956	455.299398793768	1
0	2957	455.636934762464	0
0	2984	460.015924501975	1
0	2985	460.197420002154	0
0	3026	466.989029898214	1
0	3027	467.110157248885	0
0	3033	467.851193395047	1
0	3034	468.267050973969	0
0	3047	469.119658190559	1
0	3048	469.351193395047	0
0	3054	469.852299837174	1
0	3055	470.132214870997	0
0	3138	484.882047416463	1
0	3139	485.237476102961	0
0	3222	501.246273946534	1
0	3223	501.64190354181	0
0	3250	504.867244628653	1
0	3251	504.873170755956	0
0	3257	505.094893036958	1
0	3258	505.488181233602	0
0	3264	505.946095754292	1
0	3265	506.367244628653	0
0	3306	511.496228614221	1
0	3307	511.611602651662	0
0	3320	512.840271727922	1
0	3321	512.996228614221	0
0	3327	513.551639137064	1
0	3328	514.293855802467	0
0	3345	515.630150149216	1
0	3346	515.630150149216	2
0	3348	515.656930572912	3
0	3349	515.656930572912	4
0	3350	515.793855802467	3
0	3352	516.320969516245	2
0	3353	516.320969516245	1
0	3356	516.899383279391	0
0	3404	522.121022353827	1
0	3405	522.47597910281	0
0	3411	523.085607683512	1
0	3412	523.126394254373	0
0	3439	526.940040441751	1
0	3440	527.939530189405	0
0	3457	528.954243216584	1
0	3458	528.954243216584	2
0	3459	529.439530189405	1
0	3461	529.807103896735	0
0	3467	529.919122890551	1
0	3468	530.373408334544	0
0	3502	535.183262554027	1
0	3503	535.971546687923	0
0	3523	537.988058027223	1
0	3524	538.14786514956	0
0	3530	538.218308572499	1
0	3531	538.550882522647	0
0	3614	552.426466749887	1
0	3615	552.779203831255	0
0	3628	553.620240913191	1
0	3629	553.926466749887	0
0	3635	554.297134863293	1
0	3637	554.981605363977	2
0	3638	554.981605363977	3
0	3639	555.046909642739	2
0	3640	555.046909642739	1
0	3643	555.120240913191	0
0	3726	568.285013913693	1
0	3727	568.33485551211	0
0	3768	573.758713361555	1
0	3769	574.621219188414	0
0	3789	576.631540983551	1
0	3790	576.824223043882	0
0	3803	577.801757596621	1
0	3804	578.131540983551	0
0	3810	578.765964537619	1
0	3811	578.978620125421	0
0	3845	583.221502873056	1
0	3846	583.881778074742	0
0	3908	594.320811264055	1
0	3909	595.172764648272	0
0	3936	597.708445242546	1
0	3938	598.59587818014	2
0	3939	598.59587818014	3
0	3940	598.607157301285	2
0	3941	598.607157301285	1
0	3944	599.04706438103	0
0	3978	603.674598215795	1
0	3979	603.687539157282	0
0	3999	606.926800054328	1
0	4000	607.136184720725	0
0	4006	607.702911440182	1
0	4007	608.318925293031	0
0	4027	611.287554546123	1
0	4028	611.486283860367	0
0	4097	622.180747318698	1
0	4099	622.217932248174	2
0	4100	622.217932248174	3
0	4101	622.262515620784	2
0	4102	622.262515620784	1
0	4106	623.024103336255	2
0	4107	623.024103336255	3
0	4108	623.359359720679	2
0	4109	623.359359720679	1
0	4112	623.680747318698	0
0	4122	624.24506249298	1
0	4123	624.24506249298	2
0	4124	624.859359720679	1
0	4125	624.859359720679	0
0	4129	624.956912745231	1
0	4130	624.956912745231	2
0	4131	625.180747318698	1
0	4133	625.350209674857	0
0	4139	625.773541478468	1
0	4140	626.359359720679	0
0	4209	638.756447908394	1
0	4210	639.485571001217	0
0	4258	646.473774216035	1
0	4259	646.494305669815	0
0	4349	661.711683821502	1
0	4350	662.09198030612	0
0	4391	670.124836487579	1
0	4392	670.139401142307	0
0	4398	670.821673500103	1
0	4399	671.090091436796	0
0	4426	674.35724912931	1
0	4427	674.787598906675	0
0	4461	679.856894103115	1
0	4462	680.167684196651	0
0	4468	680.535786741544	1
0	4469	680.556656427855	0
0	4517	688.583815704054	1
0	4518	689.146089392615	0
0	4524	689.399383703773	1
0	4525	689.707843682247	0
0	4531	690.05297359626	1
0	4532	690.083815704054	0
0	4538	690.681678127809	1
0	4539	690.899383703773	0
0	4542	690.953068541956	1
0	4543	690.953068541956	2
0	4544	691.207843682247	1
0	4546	691.55297359626	0
0	4552	691.792171366554	1
0	4553	692.181678127809	0
0	4559	692.579509282359	1
0	4560	692.707843682247	0
0	4566	693.12921553608	1
0	4567	693.292171366554	0
0	4570	693.667558246788	1
0	4571	693.667558246788	2
0	4572	693.681678127809	1
0	4574	694.079509282359	0
0	4608	699.887332724754	1
0	4609	699.961960386654	0
0	4713	717.813659147653	1
0	4714	718.374941523992	0
0	4748	723.54282644962	1
0	4750	724.016079383432	2
0	4751	724.016079383432	3
0	4752	724.222044161156	2
0	4753	724.222044161156	1
0	4756	724.27601704367	0
0	4762	724.660322502945	1
0	4763	725.04282644962	0
0	4766	725.467211804873	1
0	4767	725.467211804873	2
0	4768	725.722044161156	1
0	4769	725.722044161156	0
0	4776	725.905058386899	1
0	4777	726.160322502945	0
0	4780	726.44147914288	1
0	4781	726.44147914288	2
0	4782	726.54282644962	1
0	4784	727.222044161156	0
0	4797	727.886163986934	1
0	4798	728.04282644962	0
0	4801	728.420131732449	1
0	4802	728.420131732449	2
0	4803	728.722044161156	1
0	4806	728.939859702729	2
0	4807	728.939859702729	3
0	4808	728.950702295799	2
0	4809	728.950702295799	1
0	4812	729.386163986934	0
0	4860	737.059419428162	1
0	4861	737.372107575287	0
0	4867	737.567229680874	1
0	4868	737.647636112963	0
0	4888	740.724636367981	1
0	4889	740.935275218996	0
0	4895	741.037423404544	1
0	4896	741.262331867079	0
0	4902	741.756271894609	1
0	4903	742.224636367981	0
0	5000	757.306179591738	1
0	5001	757.730061084392	0
0	5070	768.697012099366	1
0	5071	769.356922271866	0
0	5161	783.002464096162	1
0	5162	783.737218232378	0
0	5168	783.785609650007	1
0	5169	784.08963368895	0
0	5196	786.948279038272	1
0	5197	786.975914033936	0
0	5238	793.661806929532	1
0	5239	794.585231546049	0
0	5280	800.801787605343	1
0	5281	801.556705482325	0
0	5378	817.010892000102	1
0	5379	817.535703300477	0
0	5385	817.862826458016	1
0	5386	818.203541417523	0
0	5413	821.97317946658	1
0	5414	822.09812090738	0
0	5539	841.984101231318	1
0	5540	842.507363876536	0
0	5560	844.587635734149	1
0	5561	845.097506337001	0
0	5714	870.750387553149	1
0	5715	870.993569499647	0
0	5721	871.426481904278	1
0	5722	871.563426516961	0
0	5812	884.222792952973	1
0	5813	884.417402312738	0
0	5819	885.091132137006	1
0	5820	885.174435844185	0
0	5903	897.303499629145	1
0	5904	897.869554752627	0
0	5994	911.475780160643	1
0	5995	911.961840019046	0
0	6008	912.866181662005	1
0	6009	912.975780160643	0
0	6012	913.139751570849	1
0	6013	913.139751570849	2
0	6014	913.461840019046	1
0	6017	913.639353497685	2
0	6018	913.639353497685	3
0	6019	914.232544555057	2
0	6020	914.232544555057	1
0	6023	914.366181662005	0
0	6026	914.380085713022	1
0	6027	914.380085713022	2
0	6028	914.475780160643	1
0	6031	914.711503828027	2
0	6032	914.711503828027	3
0	6033	914.961840019046	2
0	6035	915.732544555057	1
0	6036	915.732544555057	0
0	6043	915.898467153659	1
0	6044	915.975780160643	0
0	6050	917.080728922509	1
0	6051	917.232544555057	0
0	6127	929.551944340364	1
0	6129	930.2268505681	2
0	6130	930.2268505681	3
0	6131	930.24598560349	2
0	6132	930.24598560349	1
0	6135	930.72959067861	0
0	6183	937.607062801711	1
0	6184	937.818657885953	0
0	6190	937.99189070453	1
0	6191	938.974665851507	0
0	6316	959.015394163985	1
0	6317	959.153914126607	0
0	6323	959.817913665488	1
0	6324	959.826053981315	0
0	6330	960.107167142604	1
0	6331	960.515394163985	0
0	6337	961.032514539596	1
0	6338	961.317913665488	0
0	6344	961.379719471388	1
0	6345	961.607167142604	0
0	6351	962.520005641749	1
0	6352	962.532514539596	0
0	6407	971.121917022541	1
0	6408	971.484091950455	0
0	6414	972.114995412938	1
0	6416	972.181323857605	2
0	6417	972.181323857605	3
0	6418	972.281519080075	2
0	6419	972.281519080075	1
0	6422	972.621917022541	0
0	6428	973.475178401681	1
0	6429	973.614995412938	0
0	6449	975.999099698746	1
0	6450	976.127812790293	0
0	6484	980.624205955095	1
0	6485	981.126631448831	0
0	6575	996.239669833665	1
0	6576	996.28225829351	0
0	6673	1012.406591363435	1
0	6674	1012.425823021194	0
0	6687	1013.846194091628	1
0	6688	1013.906591363435	0
0	6708	1015.910896908497	1
0	6709	1016.456670007923	0
0	6715	1017.137881699432	1
0	6716	1017.268571311742	0
0	6736	1018.979213406934	1
0	6738	1019.278391440807	2
0	6739	1019.278391440807	3
0	6741	1019.469784286719	4
0	6742	1019.469784286719	5
0	6743	1019.520237299996	4
0	6744	1019.520237299996	3
0	6747	1020.180311655593	2
0	6748	1020.180311655593	1
0	6751	1020.479213406934	0
0	6754	1020.504727549415	1
0	6755	1020.504727549415	2
0	6756	1021.020237299996	1
0	6757	1021.020237299996	0
0	6761	1021.187121381485	1
0	6762	1021.187121381485	2
0	6763	1021.680311655593	1
0	6764	1021.680311655593	0
0	7009	1062.523232386387	1
0	7010	1062.691966112924	0
0	7037	1067.227599454468	1
0	7039	1067.476529934762	2
0	7040	1067.476529934762	3
0	7041	1067.901883514196	2
0	7042	1067.901883514196	1
0	7045	1068.72502929934	0
0	7086	1073.92445892097	1
0	7087	1074.454026402404	0
0	7093	1074.629089826818	1
0	7094	1075.06392115144	0
0	7114	1077.309050240117	1
0	7115	1077.431216054733	0
0	7156	1083.715055676192	1
0	7157	1083.789362717616	0
0	7177	1086.454321383487	1
0	7178	1086.870571882999	0
0	7205	1091.740809553586	1
0	7206	1092.454768395793	0
0	7254	1100.18298656826	1
0	7255	1100.246820554839	0
0	7366	1116.771026382082	1
0	7367	1117.443472473081	0
0	7415	1123.770028060043	1
0	7416	1123.798357862077	0
0	7478	1134.098195546109	1
0	7479	1134.287930321259	0
0	7485	1134.614826474409	1
0	7486	1134.878868695521	0
0	7569	1147.370324756591	1
0	7570	1148.524461607976	0
0	7716	1173.895510305986	1
0	7717	1173.939078168834	0
0	7765	1182.26525260106	1
0	7766	1182.290034646716	0
0	7772	1183.428533363646	1
0	7773	1183.564857630881	0
0	7807	1187.861570157674	1
0	7809	1188.547624212271	2
0	7810	1188.547624212271	3
0	7811	1188.556948057047	2
0	7812	1188.556948057047	1
0	7816	1189.180497666629	2
0	7817	1189.180497666629	3
0	7818	1189.275766594322	2
0	7819	1189.275766594322	1
0	7822	1189.361570157674	0
0	7863	1194.625530729991	1
0	7865	1194.740931329848	2
0	7866	1194.740931329848	3
0	7868	1194.798401978931	4
0	7869	1194.798401978931	5
0	7871	1195.382161411471	6
0	7872	1195.382161411471	7
0	7873	1195.80813981181	6
0	7874	1195.80813981181	5
0	7878	1195.828271754387	6
0	7879	1195.828271754387	7
0	7880	1195.925005727924	6
0	7881	1195.925005727924	5
0	7884	1196.125530729991	4
0	7887	1196.568150758767	5
0	7888	1196.568150758767	6
0	7889	1197.30813981181	5
0	7890	1197.30813981181	4
0	7893	1197.425005727924	3
0	7894	1197.425005727924	2
0	7897	1197.625530729991	1
0	7900	1197.91703848082	2
0	7901	1197.91703848082	3
0	7902	1198.80813981181	2
0	7903	1198.80813981181	1
0	7906	1198.925005727924	0
0	7916	1199.762017894079	1
0	7917	1199.762017894079	2
0	7918	1200.30813981181	1
0	7919	1200.30813981181	0
0	7933	1201.761163272145	1
0	7934	1201.80813981181	0
0	7968	1206.004085506168	1
0	7969	1206.622582418902	0
0	7975	1207.438303269072	1
0	7976	1207.455632856178	0
0	8017	1214.050038318442	1
0	8018	1214.570436041028	0
0	8024	1214.964027169091	1
0	8025	1215.234876209565	0
0	8066	1221.666742526171	1
0	8067	1222.050976572019	0
0	8080	1222.809283965585	1
0	8081	1223.166742526171	0
0	8115	1229.422437652689	1
0	8117	1229.549467691762	2
0	8118	1229.549467691762	3
0	8119	1229.595046154618	2
0	8120	1229.595046154618	1
0	8123	1230.710500835544	0
0	8157	1236.254940272034	1
0	8158	1236.943083688743	0
0	8192	1240.615005660062	1
0	8193	1241.045751080327	0
0	8262	1251.066129324274	1
0	8263	1251.800716833186	0
0	8269	1251.910033798517	1
0	8270	1252.272305864003	0
0	8402	1271.892345738499	1
0	8403	1272.177083061524	0
0	8409	1272.407197627387	1
0	8410	1273.075683516382	0
0	8416	1273.301169997225	1
0	8417	1273.392345738499	0
0	8458	1278.67906507515	1
0	8459	1278.933879617426	0
0	8479	1281.371458277906	1
0	8481	1281.764878350806	2
0	8482	1281.764878350806	3
0	8483	1281.887486505336	2
0	8484	1281.887486505336	1
0	8488	1282.457673447866	2
0	8489	1282.457673447866	3
0	8490	1282.702762252778	2
0	8491	1282.702762252778	1
0	8494	1282.871458277906	0
0	8514	1285.644365260297	1
0	8515	1286.019613720719	0
0	8591	1300.533063652592	1
0	8592	1301.105862868564	0
0	8598	1301.128982656809	1
0	8599	1301.432144874781	0
0	8612	1302.626322382464	1
0	8613	1302.628982656809	0
0	8616	1302.815606365418	1
0	8617	1302.815606365418	2
0	8618	1302.932144874781	1
0	8620	1304.105597256901	0
0	8787	1334.205288420759	1
0	8788	1334.39259175429	0
0	8864	1346.588572587515	1
0	8865	1346.894388026725	0
0	8920	1357.020543082098	1
0	8921	1357.137132691099	0
0	8948	1361.369479608548	1
0	8949	1361.548547556549	0
0	8990	1368.605496819611	1
0	8991	1368.765792428664	0
0	9081	1385.122108982085	1
0	9082	1385.410617338551	0
0	9165	1399.734457161786	1
0	9167	1400.095772368101	2
0	9168	1400.095772368101	3
0	9169	1400.121464223438	2
0	9170	1400.121464223438	1
0	9174	1400.553214552605	2
0	9175	1400.553214552605	3
0	9176	1400.831959264297	2
0	9177	1400.831959264297	1
0	9180	1401.234457161786	0
0	9200	1402.914593643188	1
0	9202	1403.048571287347	2
0	9203	1403.048571287347	3
0	9204	1403.800390260416	2
0	9205	1403.800390260416	1
0	9208	1404.106406336662	0
0	9277	1414.749656108254	1
0	9278	1414.753947441042	0
0	9326	1422.293324383095	1
0	9327	1422.804217555685	0
0	9333	1423.013495983738	1
0	9334	1423.075929194568	0
0	9354	1425.277522063284	1
0	9355	1425.644787951197	0
0	9361	1425.83639454877	1
0	9362	1426.174307561382	0
0	9403	1432.476560112064	1
0	9404	1432.487817959537	0
0	9452	1439.108778050319	1
0	9453	1439.848119415487	0
0	9459	1440.071460630833	1
0	9460	1440.239247820415	0
0	9627	1467.611212003095	1
0	9628	1468.002206462402	0
0	9634	1468.114361021983	1
0	9635	1468.300953240041	0
0	9704	1479.730284688581	1
0	9705	1480.013674814773	0
0	9739	1486.082823659505	1
0	9740	1486.321126674849	0
0	9760	1488.527623868592	1
0	9761	1488.808280487033	0
0	9767	1489.266468586981	1
0	9768	1489.274409984646	0
0	9802	1495.408712301426	1
0	9803	1495.654668980625	0
0	9837	1501.081525402564	1
0	9839	1501.198359579211	2
0	9840	1501.198359579211	3
0	9841	1501.352457525675	2
0	9842	1501.352457525675	1
0	9845	1501.43205153684	0
0	9851	1501.649769103536	1
0	9853	1501.937185403631	2
0	9854	1501.937185403631	3
0	9855	1502.581525402564	2
0	9858	1502.816142370045	3
0	9859	1502.816142370045	4
0	9860	1502.852457525675	3
0	9861	1502.852457525675	2
0	9864	1502.93205153684	1
0	9866	1503.149769103536	0
0	9869	1503.827887002917	1
0	9870	1503.827887002917	2
0	9871	1504.081525402564	1
0	9873	1504.352457525675	0
0	9914	1510.067183303342	1
0	9915	1511.202475097938	0
0	9921	1511.487918786684	1
0	9922	1511.553534923297	0
0	9956	1517.05650993598	1
0	9957	1517.428516561546	0
0	9984	1521.076250869286	1
0	9985	1521.936940394102	0
0	9991	1521.99239277054	1
0	9992	1522.333713605082	0
0	10040	1531.998753159389	1
0	10041	1532.025684286805	0
0	10047	1532.147434155427	1
0	10048	1532.851317719262	0
0	10054	1533.246325999139	1
0	10055	1533.498753159389	0
0	10075	1535.67042447974	1
0	10076	1536.101903821252	0
0	10082	1536.336160225926	1
0	10083	1536.372726758167	0
0	10124	1542.138562373498	1
0	10125	1542.909351473127	0
0	10159	1547.324916194616	1
0	10160	1547.383032125646	0
0	10180	1550.520047957521	1
0	10181	1550.843004744492	0
0	10250	1564.677207924682	1
0	10251	1564.824545409075	0
0	10257	1565.39864826902	1
0	10258	1565.43375189257	0
0	10264	1566.089824860823	1
0	10265	1566.177207924682	0
0	10432	1596.16226625583	1
0	10433	1597.15958069584	0
0	10488	1604.975432219677	1
0	10489	1605.156557148801	0
0	10495	1605.776832011302	1
0	10497	1606.128726452777	2
0	10498	1606.128726452777	3
0	10499	1606.137801762167	2
0	10500	1606.137801762167	1
0	10503	1606.475432219677	0
0	10509	1607.235690298013	1
0	10510	1607.276832011302	0
0	10579	1618.701542890135	1
0	10580	1618.927621811237	0
0	10586	1619.306394047929	1
0	10587	1619.630224392885	0
0	10663	1634.143674715449	1
0	10664	1634.153289569604	0
0	10670	1634.886526826173	1
0	10671	1634.953850142553	0
0	10726	1644.071554520391	1
0	10727	1644.18915330384	0
0	10782	1652.181363339768	1
0	10783	1652.765600324298	0
0	10845	1663.092067059626	1
0	10847	1663.57196758449	2
0	10848	1663.57196758449	3
0	10849	1663.610123782336	2
0	10850	1663.610123782336	1
0	10853	1664.345802661584	0
0	10859	1664.523374767636	1
0	10860	1664.592067059626	0
0	10922	1676.442878582639	1
0	10923	1676.659968743403	0
0	10964	1681.687033583191	1
0	10965	1682.183096192413	0
0	10971	1682.720408186367	1
0	10972	1682.732693377841	0
0	11293	1736.954742381075	1
0	11294	1737.367028416053	0
0	11321	1739.738358754402	1
0	11322	1740.249659472695	0
0	11328	1740.645616341905	1
0	11329	1741.212969755925	0
0	11384	1749.888755746412	1
0	11385	1749.981285025505	0
0	11405	1752.902394994521	1
0	11406	1752.932819438864	0
0	11412	1753.501372364791	1
0	11413	1753.727860640808	0
0	11454	1758.725930184727	1
0	11455	1759.033199607144	0
0	11461	1759.523385095986	1
0	11462	1759.720766379287	0
0	11503	1766.485502842581	1
0	11504	1766.666592909768	0
0	11524	1770.73725326357	1
0	11525	1770.83070146057	0
0	11531	1770.989032279861	1
0	11532	1771.417915025603	0
0	11538	1771.895289598673	1
0	11539	1772.23725326357	0
0	11542	1772.315245635687	1
0	11543	1772.315245635687	2
0	11544	1772.33070146057	1
0	11546	1772.489032279861	0
0	11566	1774.412089105648	1
0	11567	1774.997680020119	0
0	11573	1775.356950719999	1
0	11574	1775.582715897298	0
0	11580	1775.709479959173	1
0	11581	1775.912089105648	0
0	11584	1776.116176535366	1
0	11585	1776.116176535366	2
0	11586	1776.497680020119	1
0	11588	1776.856950719999	0
0	11594	1777.08454586403	1
0	11595	1777.209479959173	0
0	11685	1790.075637228032	1
0	11686	1790.094117490727	0
0	11713	1793.779942842649	1
0	11714	1794.038254527302	0
0	11734	1796.91263984993	1
0	11735	1797.205013594677	0
0	11741	1797.546545320445	1
0	11742	1798.358639074882	0
0	11748	1798.396542889942	1
0	11749	1798.41263984993	0
0	11818	1808.920007423838	1
0	11819	1809.329761622305	0
0	11825	1809.416821462812	1
0	11826	1810.331456528556	0
0	11860	1813.656693443648	1
0	11861	1813.974865134518	0
0	11867	1814.100631322187	1
0	11868	1814.539917793136	0
0	11944	1826.763354803632	1
0	11945	1826.930723298987	0
0	11986	1832.203883149014	1
0	11987	1832.635638335589	0
0	11993	1833.015888883195	1
0	11994	1833.229907506349	0
0	12063	1845.22106738332	1
0	12064	1845.374556456801	0
0	12070	1846.307181859741	1
0	12071	1846.32114734767	0
0	12105	1850.590878464279	1
0	12106	1850.854196097062	0
0	12112	1851.354997486489	1
0	12113	1851.814965031673	0
0	12224	1866.794309700557	1
0	12225	1867.091669361926	0
0	12231	1867.628741118595	1
0	12232	1867.925306510583	0
0	12294	1876.755961030387	1
0	12295	1877.559120699167	0
0	12448	1903.919471582433	1
0	12449	1903.935196362941	0
0	12455	1904.748101306095	1
0	12456	1904.947296149647	0
0	12462	1905.36032759708	1
0	12463	1905.419471582433	0
0	12497	1909.607730616219	1
0	12498	1910.299993315729	0
0	12504	1910.434246528375	1
0	12505	1911.042257098492	0
0	12553	1918.367539910397	1
0	12554	1918.662665778093	0
0	12560	1918.767947541488	1
0	12561	1919.071473344303	0
0	12588	1923.511620380904	1
0	12589	1923.598034482897	0
0	12595	1923.689481630061	1
0	12597	1924.351047253869	2
0	12598	1924.351047253869	3
0	12599	1924.691692016306	2
0	12600	1924.691692016306	1
0	12603	1925.011620380904	0
0	12613	1926.147402332835	1
0	12614	1926.147402332835	2
0	12615	1926.191692016306	1
0	12616	1926.191692016306	0
0	12623	1927.433854338547	1
0	12624	1927.586864035578	0
0	12637	1928.69330138598	1
0	12638	1928.933854338547	0
0	12644	1929.467292678304	1
0	12645	1929.942878299343	0
0	12714	1941.098249062006	1
0	12715	1941.129398226044	0
0	12742	1945.760731947959	1
0	12743	1945.835041129685	0
0	12770	1949.828595620817	1
0	12771	1949.874982769742	0
0	12798	1953.888203094586	1
0	12800	1954.312875390879	2
0	12801	1954.312875390879	3
0	12802	1954.360789397104	2
0	12803	1954.360789397104	1
0	12807	1954.755765782902	2
0	12808	1954.755765782902	3
0	12809	1955.232733615766	2
0	12810	1955.232733615766	1
0	12813	1955.388203094586	0
0	12833	1957.780440366758	1
0	12834	1957.90822736624	0
0	12868	1962.390421182622	1
0	12869	1962.974288320531	0
0	12910	1967.974988528922	1
0	12911	1968.155671089334	0
0	12980	1981.614857350283	1
0	12982	1981.67887369046	2
0	12983	1981.67887369046	3
0	12984	1981.730026848699	2
0	12985	1981.730026848699	1
0	12989	1982.570877357556	2
0	12990	1982.570877357556	3
0	12991	1982.852742373659	2
0	12992	1982.852742373659	1
0	12995	1983.114857350283	0
0	13005	1984.271032354821	1
0	13006	1984.271032354821	2
0	13007	1984.352742373659	1
0	13008	1984.352742373659	0
0	13050	1991.346921139923	1
0	13051	1991.989152456482	0
0	13057	1992.083131835789	1
0	13059	1992.4414894423	2
0	13060	1992.4414894423	3
0	13061	1992.55349469639	2
0	13062	1992.55349469639	1
0	13065	1992.846921139923	0
0	13127	2001.507002658887	1
0	13128	2002.641715328555	0
0	13211	2016.73784883004	1
0	13212	2017.850128325826	0
0	13229	2019.223709401894	1
0	13230	2019.223709401894	2
0	13231	2019.350128325826	1
0	13233	2020.459561905479	0
0	13274	2025.874760194626	1
0	13275	2026.328507386411	0
0	13281	2026.699336238748	1
0	13282	2026.784812367931	0
0	13302	2028.901178432113	1
0	13303	2029.138945396133	0
0	13393	2042.205235952294	1
0	13394	2042.470649810038	0
0	13456	2052.217276184322	1
0	13457	2052.476710886937	0
0	13512	2061.287164969992	1
0	13514	2061.39945346861	2
0	13515	2061.39945346861	3
0	13516	2062.210544229916	2
0	13517	2062.210544229916	1
0	13521	2062.714926324882	2
0	13522	2062.714926324882	3
0	13523	2062.751440647291	2
0	13524	2062.751440647291	1
0	13527	2062.787164969992	0
0	13530	2063.608570564811	1
0	13531	2063.608570564811	2
0	13532	2063.710544229916	1
0	13533	2063.710544229916	0
0	13610	2075.466013262355	1
0	13611	2075.8532574584	0
0	13617	2076.180373598527	1
0	13619	2076.69670302784	2
0	13620	2076.69670302784	3
0	13621	2076.746148361447	2
0	13622	2076.746148361447	1
0	13625	2076.966013262355	0
0	13659	2081.185391188616	1
0	13660	2081.587535737456	0
0	13722	2089.340651481692	1
0	13723	2089.891116583026	0
0	13764	2095.199129740881	1
0	13765	2095.73066596631	0
0	13834	2105.218859851907	1
0	13836	2105.598266208767	2
0	13837	2105.598266208767	3
0	13838	2105.771099290241	2
0	13839	2105.771099290241	1
0	13843	2105.801077111867	2
0	13844	2105.801077111867	3
0	13845	2106.324341156668	2
0	13846	2106.324341156668	1
0	13850	2106.522352004868	2
0	13851	2106.522352004868	3
0	13852	2106.718859851907	2
0	13855	2107.155561546075	3
0	13856	2107.155561546075	4
0	13857	2107.271099290241	3
0	13858	2107.271099290241	2
0	13861	2107.824341156668	1
0	13862	2107.824341156668	0
0	13869	2108.259998580642	1
0	13870	2108.771099290241	0
0	13939	2119.565221040239	1
0	13940	2119.645044096744	0
0	13967	2122.971554101681	1
0	13968	2123.266756197706	0
0	13974	2123.576789726186	1
0	13975	2123.884489347433	0
0	13981	2124.249290265838	1
0	13982	2124.471554101681	0
0	14002	2126.749782139269	1
0	14003	2127.139854083653	0
0	14037	2132.758564710718	1
0	14038	2133.337084607782	0
0	14093	2142.897787244549	1
0	14094	2143.390899869914	0
0	14100	2143.774671502301	1
0	14101	2143.786497261252	0
0	14107	2144.135824074093	1
0	14108	2144.397787244549	0
0	14114	2145.02219716623	1
0	14115	2145.274671502301	0
0	14233	2162.203317310041	1
0	14234	2163.045739357407	0
0	14261	2165.777261492965	1
0	14262	2166.091822285784	0
0	14303	2171.519141849314	1
0	14304	2171.956450293351	0
0	14331	2174.796277453077	1
0	14332	2175.155821890357	0
0	14359	2179.423262291709	1
0	14360	2179.50113927056	0
0	14366	2180.255828336633	1
0	14367	2180.267285497891	0
0	14464	2195.5918977178	1