version 3
run MMc-22-20221127-11:38:41-7588
attr configname MMc
attr datetime 20221127-11:38:41
attr datetimef 20221127-113841
attr experiment MMc
attr inifile omnetpp.ini
attr iterationvars "$mean=uniform(0.5s, 1.5s), $dev=0.5*(uniform(0.5s, 1.5s)), $time=1.5, $num=5, $0=47853, $1=24674, $2=96433"
attr iterationvarsd mean=uniform(0.5s,_1.5s)/dev=0.5#2a(uniform(0.5s,_1.5s))/time=1.5/num=5/47853/24674/96433
attr iterationvarsf mean=uniform(0.5s,_1.5s),dev=0.5#2a(uniform(0.5s,_1.5s)),time=1.5,num=5,47853,24674,96433-
attr measurement "$mean=uniform(0.5s, 1.5s), $dev=0.5*(uniform(0.5s, 1.5s)), $time=1.5, $num=5, $0=47853, $1=24674, $2=96433"
attr network MMc
attr processid 7588
attr repetition 2
attr replication #2
attr resultdir results
attr runnumber 22
attr seedset 22
itervar dev "0.5*(uniform(0.5s, 1.5s))"
itervar mean "uniform(0.5s, 1.5s)"
itervar num 5
itervar time 1.5
config description "MMc module"
config network MMc
config MMc.source.interArrivalTime "truncnormal(uniform(0.5s, 1.5s), 0.5*(uniform(0.5s, 1.5s)))"
config MMc.mmc.serviceTime 1.5s
config MMc.mmc.c 5
config MMc.mmc.capacity 10000
config record-eventlog false
config **.scalar-recording true
config **.vector-recording true
config repeat 4
config seed-1-mt 47853
config seed-2-mt 24674
config seed-3-mt 96433
config output-vector-file MMc-5-1.5-results/2.vec
config output-scalar-file MMc-5-1.5-results/2.sca

vector 0 MMc.mmc queueLength:vector ETV
attr interpolationmode none
attr recordingmode vector
attr title "queue length"
vector 1 MMc.mmc util:vector ETV
attr interpolationmode none
attr recordingmode vector
attr title resources
0	0	0	0
0	58	18.835054179278	1
0	59	19.220305790132	0
0	86	23.864822127658	1
0	87	23.971991160867	0
0	93	25.054988935163	1
0	94	25.175027175721	0
0	149	34.985953489532	1
0	151	35.05036883132	2
0	152	35.05036883132	3
0	153	35.375383706231	2
0	154	35.375383706231	1
0	158	35.795616901836	2
0	159	35.795616901836	3
0	160	36.041127222236	2
0	161	36.041127222236	1
0	164	36.485953489532	0
0	167	36.775503430319	1
0	168	36.775503430319	2
0	169	36.875383706231	1
0	170	36.875383706231	0
0	198	40.154044606058	1
0	199	40.312675212536	0
0	205	41.079857384094	1
0	206	41.120973191243	0
0	212	41.572221125125	1
0	214	41.625942025026	2
0	215	41.625942025026	3
0	216	41.654044606058	2
0	218	41.812675212536	1
0	220	42.579857384094	0
0	268	49.501576727179	1
0	269	49.928263810146	0
0	275	50.076678881671	1
0	276	50.780465403366	0
0	324	56.623776339008	1
0	325	57.215029114688	0
0	331	57.936240812218	1
0	332	57.943395543407	0
0	366	62.763399637196	1
0	367	63.225550116006	0
0	478	80.129734832785	1
0	479	80.299815539198	0
0	485	80.643326780267	1
0	486	81.265644717066	0
0	583	97.558023309943	1
0	584	98.38872909433	0
0	604	100.620279656779	1
0	605	100.786122540888	0
0	611	101.419810633491	1
0	612	101.679236235619	0
0	660	108.748212034965	1
0	661	108.816811360208	0
0	667	109.927420528528	1
0	669	109.9780539257	2
0	670	109.9780539257	3
0	671	110.008973811029	2
0	672	110.008973811029	1
0	675	110.248212034965	0
0	681	110.908425699148	1
0	682	111.427420528528	0
0	751	121.75343470319	1
0	752	122.193007868205	0
0	758	122.553578642086	1
0	760	122.628941342681	2
0	761	122.628941342681	3
0	763	123.032119933933	4
0	764	123.032119933933	5
0	765	123.049165588156	4
0	766	123.049165588156	3
0	769	123.25343470319	2
0	771	123.693007868205	1
0	773	124.053578642086	0
0	776	124.229616908271	1
0	777	124.229616908271	2
0	778	124.549165588156	1
0	779	124.549165588156	0
0	786	125.158278373781	1
0	787	125.193007868205	0
0	884	139.741040543429	1
0	885	140.932847976642	0
0	947	149.076900161136	1
0	948	149.097914939132	0
0	1003	158.197348014284	1
0	1004	158.475615563786	0
0	1024	160.621942495945	1
0	1025	160.973178736951	0
0	1031	161.143937976044	1
0	1032	161.503967841514	0
0	1052	163.031066638399	1
0	1054	163.484512622626	2
0	1055	163.484512622626	3
0	1056	163.729898064746	2
0	1057	163.729898064746	1
0	1060	164.360486122449	0
0	1101	168.796435473477	1
0	1102	169.27735961238	0
0	1185	181.627548230342	1
0	1186	181.916855647518	0
0	1192	182.300543544838	1
0	1193	182.873945598571	0
0	1199	182.940743524894	1
0	1200	183.127548230342	0
0	1269	191.785577119714	1
0	1270	192.463346518359	0
0	1276	192.650207190955	1
0	1277	192.757144880349	0
0	1423	218.09547675668	1
0	1424	218.264728669144	0
0	1451	222.017795782636	1
0	1452	222.140202368987	0
0	1479	225.962473652265	1
0	1481	226.12092998756	2
0	1482	226.12092998756	3
0	1483	226.768643330405	2
0	1484	226.768643330405	1
0	1487	227.218149978285	0
0	1493	227.398967794666	1
0	1494	227.462473652265	0
0	1563	240.158894228034	1
0	1564	240.635768263977	0
0	1591	244.441544077838	1
0	1592	244.726406176224	0
0	1654	254.247051649255	1
0	1655	254.27181404308	0
0	1675	256.818467075549	1
0	1676	257.099141351581	0
0	1710	262.341887456942	1
0	1711	263.097115893975	0
0	1717	263.344685582466	1
0	1718	263.559549643453	0
0	1724	263.725973541902	1
0	1725	263.841887456942	0
0	1773	271.314116214378	1
0	1774	272.270203446863	0
0	1780	272.631654857126	1
0	1781	272.727195181148	0
0	1801	275.412015809342	1
0	1802	275.821196807153	0
0	1913	295.113417556038	1
0	1914	295.270747397054	0
0	1920	295.728789004755	1
0	1921	296.338446730541	0
0	1955	300.536676650018	1
0	1956	300.698171874689	0
0	1962	300.789141021579	1
0	1963	301.449774039369	0
0	1969	301.607183045212	1
0	1970	302.036676650018	0
0	1997	304.989036696679	1
0	1998	305.116142086526	0
0	2011	306.145840168615	1
0	2012	306.489036696679	0
0	2060	313.306752972691	1
0	2061	313.437735695497	0
0	2081	316.122819795785	1
0	2082	316.598794142422	0
0	2102	318.373677428566	1
0	2103	318.761904727745	0
0	2109	319.270094551064	1
0	2110	319.532924334552	0
0	2130	322.15324299181	1
0	2132	322.672997313477	2
0	2133	322.672997313477	3
0	2134	322.999107054715	2
0	2135	322.999107054715	1
0	2138	323.111789376208	0
0	2144	323.347995851141	1
0	2145	323.65324299181	0
0	2148	323.848161175023	1
0	2149	323.848161175023	2
0	2150	324.499107054715	1
0	2151	324.499107054715	0
0	2158	324.721453543857	1
0	2159	324.847995851141	0
0	2165	325.832084660495	1
0	2166	325.999107054715	0
0	2284	345.425114273435	1
0	2285	345.822501466787	0
0	2298	346.729270441978	1
0	2299	346.925114273435	0
0	2361	355.771668470173	1
0	2362	355.895235340214	0
0	2424	366.690736997065	1
0	2425	366.946529432515	0
0	2431	367.858188054697	1
0	2432	367.977856214473	0
0	2480	375.543772503947	1
0	2482	375.89277557088	2
0	2483	375.89277557088	3
0	2485	376.27000594729	4
0	2486	376.27000594729	5
0	2487	376.339401734312	4
0	2488	376.339401734312	3
0	2492	376.632756543116	4
0	2493	376.632756543116	5
0	2494	376.847224617294	4
0	2495	376.847224617294	3
0	2498	377.043772503947	2
0	2501	377.763135189442	3
0	2502	377.763135189442	4
0	2503	377.839401734312	3
0	2504	377.839401734312	2
0	2508	378.13030112444	3
0	2509	378.13030112444	4
0	2510	378.347224617294	3
0	2511	378.347224617294	2
0	2514	378.543772503947	1
0	2517	379.004748759833	2
0	2518	379.004748759833	3
0	2519	379.339401734312	2
0	2520	379.339401734312	1
0	2523	379.847224617294	0
0	2592	390.560360761764	1
0	2593	390.714444060224	0
0	2655	399.974737815497	1
0	2656	400.298208941221	0
0	2683	405.154774026923	1
0	2684	405.191943266953	0
0	2711	409.000390803479	1
0	2712	409.398647534192	0
0	2760	416.936565653306	1
0	2761	417.171245223253	0
0	2767	417.784351657603	1
0	2769	418.362905391927	2
0	2770	418.362905391927	3
0	2771	418.418282150751	2
0	2772	418.418282150751	1
0	2775	418.436565653306	0
0	2795	420.953367001472	1
0	2796	421.489766422386	0
0	2851	433.068164451247	1
0	2852	433.822635619059	0
0	2858	434.026896421447	1
0	2859	434.080547609969	0
0	2956	450.932833945239	1
0	2957	451.362688927956	0
0	2984	455.356458826255	1
0	2985	455.461715970108	0
0	2991	455.513069578449	1
0	2993	455.929421085769	2
0	2994	455.929421085769	3
0	2995	456.292090103979	2
0	2996	456.292090103979	1
0	2999	456.856458826255	0
0	3009	457.646877290409	1
0	3010	457.646877290409	2
0	3011	457.792090103979	1
0	3012	457.792090103979	0
0	3016	458.269538303696	1
0	3017	458.269538303696	2
0	3018	458.356458826255	1
0	3020	458.597267530352	0
0	3040	461.953482180874	1
0	3041	461.983769253119	0
0	3047	462.620941164623	1
0	3048	463.067951205297	0
0	3054	463.452804574511	1
0	3055	463.453482180874	0
0	3145	478.522889799327	1
0	3146	479.2800123039	0
0	3173	482.702250410024	1
0	3174	483.309966542289	0
0	3215	490.628125573516	1
0	3216	491.010220760984	0
0	3222	491.30194154648	1
0	3223	491.833390955307	0
0	3240	493.001884544115	1
0	3241	493.001884544115	2
0	3242	493.333390955307	1
0	3244	493.710983828858	0
0	3250	493.845252726316	1
0	3251	494.4318260907	0
0	3292	501.547419598225	1
0	3293	501.655714192215	0
0	3306	502.725656071502	1
0	3307	503.047419598225	0
0	3327	505.086943369944	1
0	3328	505.684230482007	0
0	3348	507.601063227722	1
0	3349	508.037130611335	0
0	3390	514.240924757582	1
0	3391	514.590002505224	0
0	3446	523.648130101754	1
0	3447	523.672185837063	0
0	3453	524.568002249957	1
0	3454	524.613102249857	0
0	3467	525.741994419835	1
0	3468	526.068002249957	0
0	3471	526.101495189313	1
0	3472	526.101495189313	2
0	3473	526.113102249857	1
0	3475	526.883471318299	0
0	3481	527.171144565043	1
0	3482	527.241994419835	0
0	3492	528.168905209849	1
0	3493	528.168905209849	2
0	3494	528.383471318299	1
0	3496	528.671144565043	0
0	3537	533.881834359714	1
0	3538	534.579220326453	0
0	3607	543.892176282259	1
0	3608	544.108782785169	0
0	3649	550.086427715473	1
0	3650	550.695718353163	0
0	3691	556.477574308652	1
0	3692	557.167204090067	0
0	3754	566.35214745798	1
0	3756	566.886661830739	2
0	3757	566.886661830739	3
0	3758	566.918574332217	2
0	3759	566.918574332217	1
0	3763	567.525803412645	2
0	3764	567.525803412645	3
0	3765	567.789982083303	2
0	3766	567.789982083303	1
0	3769	567.85214745798	0
0	3779	568.641915216943	1
0	3780	568.641915216943	2
0	3782	569.215811399197	3
0	3783	569.215811399197	4
0	3784	569.289982083303	3
0	3785	569.289982083303	2
0	3788	569.35214745798	1
0	3791	569.761628378625	2
0	3792	569.761628378625	3
0	3793	569.987518276393	2
0	3794	569.987518276393	1
0	3797	570.789982083303	0
0	3831	574.085051658192	1
0	3832	574.604871460518	0
0	3838	574.810042011443	1
0	3839	575.133400488767	0
0	3866	578.553423739339	1
0	3867	578.769556290806	0
0	3908	585.388246849572	1
0	3909	585.581165844949	0
0	3915	586.087503098197	1
0	3916	586.29610172829	0
0	3922	586.471308006504	1
0	3923	586.888246849572	0
0	3971	594.106451660563	1
0	3972	594.575509943161	0
0	3978	594.738814959157	1
0	3979	595.401069416731	0
0	4069	609.022186715855	1
0	4070	609.258279355355	0
0	4083	610.458970140689	1
0	4084	610.522186715855	0
0	4090	611.348248931779	1
0	4091	611.757097334549	0
0	4104	612.403148080091	1
0	4106	612.764123837561	2
0	4107	612.764123837561	3
0	4108	612.848248931779	2
0	4110	613.257097334549	1
0	4113	613.412845157203	2
0	4114	613.412845157203	3
0	4115	613.485290586833	2
0	4116	613.485290586833	1
0	4119	613.903148080091	0
0	4125	614.575941882339	1
0	4126	614.757097334549	0
0	4293	642.305551746543	1
0	4294	642.307216675926	0
0	4398	659.307971177244	1
0	4399	659.589246376398	0
0	4447	666.014662477776	1
0	4448	666.047588360761	0
0	4559	684.977151380131	1
0	4561	685.05745291207	2
0	4562	685.05745291207	3
0	4563	685.184421703411	2
0	4564	685.184421703411	1
0	4567	685.351152088442	0
0	4601	689.89749205926	1
0	4602	690.177050197362	0
0	4629	693.781613925927	1
0	4630	694.168752839158	0
0	4657	697.990088727203	1
0	4658	698.307869887478	0
0	4699	704.820008488089	1
0	4700	704.852084352624	0
0	4706	705.817672760385	1
0	4707	705.825876724976	0
0	4741	711.808002617413	1
0	4743	711.905655714246	2
0	4744	711.905655714246	3
0	4745	712.080879191582	2
0	4746	712.080879191582	1
0	4749	713.244334261854	0
0	4766	714.680651422707	1
0	4767	714.680651422707	2
0	4768	714.744334261854	1
0	4770	715.202028406475	0
0	4776	715.741728013968	1
0	4777	715.821628141744	0
0	4783	715.90788671002	1
0	4784	716.244334261854	0
0	4790	716.712234920737	1
0	4791	717.241728013968	0
0	4818	720.832309169878	1
0	4819	720.965589238565	0
0	4825	721.398335840976	1
0	4826	721.575637571751	0
0	4923	738.377580702798	1
0	4924	738.827641056985	0
0	5042	754.735030702438	1
0	5043	754.819693004826	0
0	5098	764.551994720403	1
0	5099	764.626574174263	0
0	5119	766.715129937223	1
0	5120	767.125985545333	0
0	5154	771.916303085678	1
0	5155	772.380101747165	0
0	5168	773.054024931505	1
0	5170	773.216590348876	2
0	5171	773.216590348876	3
0	5172	773.416303085678	2
0	5174	773.880101747165	1
0	5176	774.218042150384	0
0	5203	778.007438079172	1
0	5204	778.303671422093	0
0	5210	778.474598553787	1
0	5211	779.058172179483	0
0	5231	782.42552753833	1
0	5232	782.571973039924	0
0	5238	782.981305231591	1
0	5239	783.140553011902	0
0	5273	787.134937733557	1
0	5274	787.938525702334	0
0	5308	792.748066664941	1
0	5309	792.806451423149	0
0	5315	793.453906920811	1
0	5316	793.884187949129	0
0	5434	814.488693336748	1
0	5435	814.62932520667	0
0	5448	815.876597687435	1
0	5449	815.988693336748	0
0	5452	816.016226813234	1
0	5453	816.016226813234	2
0	5454	816.12932520667	1
0	5457	816.704064900696	2
0	5458	816.704064900696	3
0	5459	816.796721282506	2
0	5460	816.796721282506	1
0	5463	817.376597687435	0
0	5518	826.386322181506	1
0	5519	826.652771869241	0
0	5525	827.539038259915	1
0	5526	827.595036753186	0
0	5546	830.079979104864	1
0	5547	830.678188439474	0
0	5553	831.209279820407	1
0	5554	831.434213142813	0
0	5567	832.550991055985	1
0	5568	832.709279820407	0
0	5574	833.71481520208	1
0	5575	833.833390892175	0
0	5679	851.488822144804	1
0	5680	852.303380797124	0
0	5686	852.387342168081	1
0	5687	852.619105407271	0
0	5721	857.262248193839	1
0	5722	857.331359350515	0
0	5763	862.896872163919	1
0	5764	863.258316994259	0
0	5819	872.709655698567	1
0	5820	872.879791300586	0
0	5840	875.65256236882	1
0	5841	875.674538799284	0
0	5847	876.367630234669	1
0	5848	876.840090046173	0
0	5917	888.161184345134	1
0	5919	888.510043344488	2
0	5920	888.510043344488	3
0	5921	888.591803845236	2
0	5922	888.591803845236	1
0	5926	889.34925496813	2
0	5927	889.34925496813	3
0	5928	889.478469527225	2
0	5929	889.478469527225	1
0	5932	889.661184345134	0
0	5973	897.396535749644	1
0	5974	897.39760878167	0
0	6057	912.416174580042	1
0	6058	913.019906368052	0
0	6134	924.923196222369	1
0	6135	925.085395619312	0
0	6141	925.585915094726	1
0	6142	926.253946478072	0
0	6218	937.340127769817	1
0	6219	937.667912048959	0
0	6225	938.011710569244	1
0	6226	938.366992555376	0
0	6246	939.913130062727	1
0	6247	940.634128405058	0
0	6253	940.788268540841	1
0	6254	941.236371343449	0
0	6337	954.516116183173	1
0	6338	955.306536862291	0
0	6449	971.790779783823	1
0	6450	972.403475792015	0
0	6456	972.612740527233	1
0	6457	972.936913055696	0
0	6512	981.856259852699	1
0	6513	982.453104952035	0
0	6519	982.456522844424	1
0	6520	983.295411230477	0
0	6561	989.697850334726	1
0	6562	990.172063214071	0
0	6617	997.79024798557	1
0	6618	998.093241015117	0
0	6631	999.178579188139	1
0	6632	999.29024798557	0
0	6694	1009.147278125081	1
0	6696	1009.246553060043	2
0	6697	1009.246553060043	3
0	6698	1009.51740084245	2
0	6699	1009.51740084245	1
0	6702	1010.29984779525	0
0	6792	1023.808224643679	1
0	6793	1023.950470024958	0
0	6862	1035.755450604343	1
0	6863	1036.021751445247	0
0	6883	1039.200271579776	1
0	6884	1039.379138735289	0
0	6890	1040.064996986969	1
0	6891	1040.2292216958	0
0	6897	1040.565691727124	1
0	6898	1040.700271579776	0
0	6932	1045.419260609118	1
0	6933	1045.939605560394	0
0	6939	1046.181372737914	1
0	6940	1046.657709205881	0
0	7037	1058.458478793956	1
0	7038	1058.85924503388	0
0	7100	1068.682804637324	1
0	7102	1069.295867959082	2
0	7103	1069.295867959082	3
0	7104	1069.433612645901	2
0	7105	1069.433612645901	1
0	7108	1069.896801610222	0
0	7114	1070.102617597054	1
0	7115	1070.182804637324	0
0	7118	1070.663298528502	1
0	7119	1070.663298528502	2
0	7120	1070.933612645901	1
0	7121	1070.933612645901	0
0	7125	1071.349699475437	1
0	7126	1071.349699475437	2
0	7127	1071.396801610222	1
0	7129	1071.602617597054	0
0	7149	1073.879254690564	1
0	7150	1073.945740515435	0
0	7191	1079.532236637588	1
0	7193	1079.912592487277	2
0	7194	1079.912592487277	3
0	7195	1079.934481426654	2
0	7196	1079.934481426654	1
0	7200	1080.753267159033	2
0	7201	1080.753267159033	3
0	7202	1080.787612227474	2
0	7203	1080.787612227474	1
0	7206	1081.032236637588	0
0	7254	1089.033545982735	1
0	7255	1089.196592682168	0
0	7261	1089.627824205512	1
0	7262	1089.695333173452	0
0	7268	1090.495800352708	1
0	7269	1090.533545982735	0
0	7289	1093.25552096398	1
0	7290	1093.506765677987	0
0	7401	1111.27325256149	1
0	7402	1111.3596824049	0
0	7408	1112.066709826534	1
0	7409	1112.238592430675	0
0	7457	1117.296358608152	1
0	7459	1117.972229759036	2
0	7460	1117.972229759036	3
0	7461	1118.030257076283	2
0	7462	1118.030257076283	1
0	7465	1118.77052867997	0
0	7513	1125.308193924266	1
0	7514	1125.406004559205	0
0	7548	1130.042255501648	1
0	7549	1130.201619941475	0
0	7779	1166.968537765609	1
0	7780	1167.112366623643	0
0	7786	1168.004907878183	1
0	7787	1168.422807276149	0
0	7835	1173.688043158186	1
0	7836	1174.48675900349	0
0	7863	1177.377218102592	1
0	7864	1178.140974032612	0
0	7870	1178.6270654859	1
0	7871	1178.664115589522	0
0	7905	1183.949884520059	1
0	7907	1184.096610038885	2
0	7908	1184.096610038885	3
0	7909	1184.461005504118	2
0	7910	1184.461005504118	1
0	7913	1184.972624640253	0
0	7989	1196.918244405878	1
0	7990	1197.004287137804	0
0	7996	1197.801631333608	1
0	7997	1198.023956247433	0
0	8003	1198.330430247785	1
0	8004	1198.418244405878	0
0	8031	1201.806146302553	1
0	8032	1202.714536501081	0
0	8038	1203.056917468192	1
0	8039	1203.08864919685	0
0	8066	1207.515429185556	1
0	8067	1207.669189073391	0
0	8073	1208.423726892656	1
0	8074	1208.485267261482	0
0	8094	1210.39985058608	1
0	8095	1210.632849974216	0
0	8101	1210.887397927222	1
0	8103	1211.253938348845	2
0	8104	1211.253938348845	3
0	8106	1211.582872260429	4
0	8107	1211.582872260429	5
0	8108	1211.597561345797	4
0	8109	1211.597561345797	3
0	8112	1211.89985058608	2
0	8114	1212.132849974216	1
0	8116	1212.387397927222	0
0	8119	1212.509282300949	1
0	8120	1212.509282300949	2
0	8121	1213.097561345797	1
0	8122	1213.097561345797	0
0	8185	1222.540391596135	1
0	8186	1222.713466024249	0
0	8192	1223.20609529611	1
0	8193	1223.89738329849	0
0	8283	1238.519103960159	1
0	8284	1238.796500016253	0
0	8409	1260.500451885705	1
0	8410	1261.285181952137	0
0	8500	1276.899946152142	1
0	8501	1277.242733959433	0
0	8640	1301.12834618712	1
0	8641	1301.69868334769	0
0	8696	1309.134010182226	1
0	8697	1309.767171922331	0
0	8703	1309.92514161921	1
0	8704	1310.567100161997	0
0	8731	1313.765411600978	1
0	8732	1314.185736978928	0
0	8759	1317.850437528312	1
0	8760	1317.984282989762	0
0	8766	1318.764457842087	1
0	8767	1318.764467283401	0
0	8773	1319.241961144499	1
0	8774	1319.350437528312	0
0	8801	1323.889828501365	1
0	8802	1324.225439862274	0
0	8885	1337.354552091623	1
0	8886	1337.545995063557	0
0	8906	1340.082636623962	1
0	8907	1340.750953978849	0
0	8983	1353.366738896186	1
0	8984	1353.407754892582	0
0	9018	1357.69619170649	1
0	9019	1358.076794349846	0
0	9053	1362.256648182851	1
0	9055	1363.164812325521	2
0	9056	1363.164812325521	3
0	9058	1363.302315305273	4
0	9059	1363.302315305273	5
0	9060	1363.617472350164	4
0	9061	1363.617472350164	3
0	9064	1363.70722937177	2
0	9065	1363.70722937177	1
0	9068	1363.756648182851	0
0	9071	1364.392622939413	1
0	9072	1364.392622939413	2
0	9073	1365.117472350164	1
0	9074	1365.117472350164	0
0	9137	1374.231242025452	1
0	9138	1374.661992156381	0
0	9144	1374.760516842962	1
0	9145	1375.40240348932	0
0	9151	1375.622986204635	1
0	9152	1375.731242025452	0
0	9179	1379.636551217994	1
0	9180	1379.93994828739	0
0	9186	1380.632138634309	1
0	9187	1380.798984071901	0
0	9256	1392.008295044908	1
0	9257	1392.29740679118	0
0	9312	1401.347595877922	1
0	9313	1401.504143665047	0
0	9319	1401.629044669066	1
0	9321	1401.993611976929	2
0	9322	1401.993611976929	3
0	9323	1402.012071985366	2
0	9324	1402.012071985366	1
0	9328	1402.479155325055	2
0	9329	1402.479155325055	3
0	9330	1402.847595877922	2
0	9332	1403.004143665047	1
0	9334	1403.129044669066	0
0	9337	1403.204319584992	1
0	9338	1403.204319584992	2
0	9339	1403.512071985366	1
0	9340	1403.512071985366	0
0	9344	1403.556348586718	1
0	9345	1403.556348586718	2
0	9347	1404.303268440791	3
0	9348	1404.303268440791	4
0	9349	1404.347595877922	3
0	9351	1404.504143665047	2
0	9353	1404.629044669066	1
0	9355	1405.012071985366	0
0	9361	1405.380259420581	1
0	9363	1405.770959325239	2
0	9364	1405.770959325239	3
0	9365	1405.847595877922	2
0	9367	1406.004143665047	1
0	9369	1406.129044669066	0
0	9445	1418.11050482596	1
0	9446	1418.304188290184	0
0	9571	1436.581761647286	1
0	9572	1436.992912742579	0
0	9578	1437.389398162121	1
0	9580	1437.786966673496	2
0	9581	1437.786966673496	3
0	9582	1437.88996901198	2
0	9583	1437.88996901198	1
0	9586	1438.081761647286	0
0	9655	1448.997530951032	1
0	9656	1449.786415722062	0
0	9816	1482.369681535423	1
0	9817	1482.401901261064	0
0	9844	1485.408158446239	1
0	9845	1485.835299831429	0
0	9921	1497.595896583895	1
0	9922	1497.703478932786	0
0	9928	1498.007415889832	1
0	9930	1498.708477839864	2
0	9931	1498.708477839864	3
0	9932	1498.797950867391	2
0	9933	1498.797950867391	1
0	9936	1499.095896583895	0
0	9963	1503.096311236562	1
0	9964	1503.21244375524	0
0	10019	1512.136933992335	1
0	10020	1512.485064867613	0
0	10082	1524.300566068948	1
0	10083	1524.419201510129	0
0	10124	1530.753643269126	1
0	10125	1530.829414539939	0
0	10145	1533.501985262273	1
0	10146	1533.835877004123	0
0	10173	1537.876466393296	1
0	10174	1538.0875956181	0
0	10222	1546.252436249057	1
0	10223	1546.586928777488	0
0	10229	1547.087527711625	1
0	10230	1547.354939729377	0
0	10313	1561.880398412278	1
0	10314	1562.026652545547	0
0	10320	1562.325352315174	1
0	10322	1563.18429217794	2
0	10323	1563.18429217794	3
0	10324	1563.246753534659	2
0	10325	1563.246753534659	1
0	10328	1563.380398412278	0
0	10334	1563.819306503782	1
0	10335	1563.825352315174	0
0	10338	1564.618250691067	1
0	10339	1564.618250691067	2
0	10340	1564.746753534659	1
0	10341	1564.746753534659	0
0	10383	1570.874423627829	1
0	10384	1571.341592475054	0
0	10425	1578.754371900831	1
0	10426	1578.827182425085	0
0	10495	1589.587025919542	1
0	10496	1589.956531296579	0
0	10530	1594.305274362737	1
0	10531	1594.340929387761	0
0	10572	1599.78128407198	1
0	10573	1600.297655786248	0
0	10579	1600.570481093956	1
0	10580	1601.145530700338	0
0	10600	1602.872268837087	1
0	10601	1603.08950429758	0
0	10628	1607.275164902468	1
0	10629	1607.626516846511	0
0	10649	1610.144706405908	1
0	10650	1610.145763872587	0
0	10684	1615.803291934954	1
0	10685	1616.092107239587	0
0	10719	1620.179918480147	1
0	10720	1620.349268213713	0
0	10915	1653.061791224363	1
0	10916	1653.323067937749	0
0	10922	1653.432629709306	1
0	10924	1653.434712858673	2
0	10925	1653.434712858673	3
0	10926	1653.908431023129	2
0	10927	1653.908431023129	1
0	10930	1654.561791224363	0
0	10936	1654.881434929444	1
0	10937	1654.932629709306	0
0	10992	1662.344486467858	1
0	10993	1662.520082107602	0
0	10999	1663.214807785446	1
0	11000	1663.831465356626	0
0	11041	1670.375989914797	1
0	11042	1670.678845770083	0
0	11048	1670.886517671119	1
0	11049	1671.712023404983	0
0	11055	1671.874271942736	1
0	11056	1671.875989914797	0
0	11111	1682.541136709035	1
0	11113	1683.178043140554	2
0	11114	1683.178043140554	3
0	11115	1683.213714887401	2
0	11116	1683.213714887401	1
0	11119	1683.792214572327	0
0	11181	1694.037592934114	1
0	11183	1694.09019296648	2
0	11184	1694.09019296648	3
0	11185	1694.219377825793	2
0	11186	1694.219377825793	1
0	11189	1694.714344603494	0
0	11195	1695.335305856543	1
0	11197	1695.341818554907	2
0	11198	1695.341818554907	3
0	11199	1695.537592934114	2
0	11201	1695.719377825793	1
0	11202	1695.719377825793	0
0	11258	1703.330547052074	1
0	11260	1703.826538705331	2
0	11261	1703.826538705331	3
0	11262	1704.146099018834	2
0	11263	1704.146099018834	1
0	11266	1704.449970837845	0
0	11300	1707.748672186884	1
0	11301	1708.257908875015	0
0	11391	1722.69830690082	1
0	11392	1722.75718451183	0
0	11398	1723.17158235569	1
0	11399	1723.282732252556	0
0	11405	1724.173401678219	1
0	11406	1724.19830690082	0
0	11412	1724.582488289939	1
0	11413	1724.67158235569	0
0	11419	1725.49786085928	1
0	11420	1725.673401678219	0
0	11426	1725.736102084208	1
0	11428	1726.040809890209	2
0	11429	1726.040809890209	3
0	11430	1726.082488289939	2
0	11432	1726.17158235569	1
0	11435	1726.678565983436	2
0	11436	1726.678565983436	3
0	11437	1726.99786085928	2
0	11439	1727.173401678219	1
0	11441	1727.236102084208	0
0	11444	1727.513781669464	1
0	11445	1727.513781669464	2
0	11446	1727.582488289939	1
0	11448	1727.67158235569	0
0	11451	1728.131787285355	1
0	11452	1728.131787285355	2
0	11453	1728.49786085928	1
0	11455	1728.673401678219	0
0	11461	1728.955696649267	1
0	11462	1729.082488289939	0
0	11468	1729.174311074137	1
0	11470	1729.708961326181	2
0	11471	1729.708961326181	3
0	11473	1729.807749678306	4
0	11474	1729.807749678306	5
0	11475	1729.99786085928	4
0	11477	1730.173401678219	3
0	11479	1730.455696649267	2
0	11481	1730.582488289939	1
0	11483	1730.674311074137	0
0	11486	1731.038045142112	1
0	11487	1731.038045142112	2
0	11488	1731.49786085928	1
0	11490	1731.673401678219	0
0	11657	1760.252309767877	1
0	11658	1760.339815546117	0
0	11678	1762.447036950362	1
0	11679	1762.973111892577	0
0	11685	1763.402521744214	1
0	11686	1763.92455530074	0
0	11706	1766.658041466438	1
0	11707	1766.717345152372	0
0	11713	1767.173436897931	1
0	11714	1767.829213257319	0
0	11720	1767.835702572385	1
0	11721	1768.158041466438	0
0	11727	1768.566309087889	1
0	11728	1768.673436897931	0
0	11755	1772.324500735272	1
0	11756	1772.372267874509	0
0	11762	1772.666014290026	1
0	11763	1772.899118381233	0
0	11769	1773.624487384387	1
0	11771	1773.768209518909	2
0	11772	1773.768209518909	3
0	11773	1773.824500735272	2
0	11775	1773.872267874509	1
0	11777	1774.166014290026	0
0	11783	1774.995246021174	1
0	11784	1775.124487384387	0
0	11825	1780.831892128043	1
0	11826	1781.174632796678	0
0	11916	1794.971064446675	1
0	11917	1795.500846152042	0
0	11923	1795.964981559013	1
0	11924	1796.083625764471	0
0	11934	1796.934753338929	1
0	11935	1796.934753338929	2
0	11936	1797.000846152042	1
0	11938	1797.464981559013	0
0	11944	1798.14534250187	1
0	11945	1798.158733164944	0
0	12000	1805.393874996746	1
0	12001	1805.652943812181	0
0	12007	1805.683996571564	1
0	12008	1806.355229902868	0
0	12014	1806.559353008719	1
0	12015	1806.893874996746	0
0	12056	1811.665110385267	1
0	12057	1812.161372732792	0
0	12112	1821.558306068229	1
0	12114	1821.831991469934	2
0	12115	1821.831991469934	3
0	12116	1822.119772837218	2
0	12117	1822.119772837218	1
0	12120	1822.661396648021	0
0	12126	1822.682003626134	1
0	12127	1823.058306068229	0
0	12154	1827.31943936875	1
0	12155	1827.966984071313	0
0	12168	1828.578636435395	1
0	12169	1828.81943936875	0
0	12175	1829.515482175227	1
0	12176	1829.635762740749	0
0	12196	1832.097560549962	1
0	12197	1832.100079394245	0
0	12245	1839.042699900623	1
0	12246	1839.215065314012	0
0	12252	1839.858440106841	1
0	12253	1840.067850450471	0
0	12259	1840.419219786883	1
0	12260	1840.542699900623	0
0	12266	1841.30435776227	1
0	12267	1841.358440106841	0
0	12329	1852.25378118288	1
0	12331	1852.374799934338	2
0	12332	1852.374799934338	3
0	12333	1852.710429379258	2
0	12334	1852.710429379258	1
0	12338	1853.189744336401	2
0	12339	1853.189744336401	3
0	12340	1853.507092940271	2
0	12341	1853.507092940271	1
0	12344	1853.75378118288	0
0	12354	1854.654595669769	1
0	12355	1854.654595669769	2
0	12356	1855.007092940271	1
0	12357	1855.007092940271	0
0	12364	1855.370447279455	1
0	12365	1856.090349606179	0
0	12371	1856.195310701036	1
0	12372	1856.507092940271	0
0	12455	1868.067536071672	1
0	12456	1868.233447796633	0
0	12462	1869.044130641138	1
0	12464	1869.128067142767	2
0	12465	1869.128067142767	3
0	12466	1869.271827160563	2
0	12467	1869.271827160563	1
0	12470	1869.567536071672	0
0	12473	1869.628112945857	1
0	12474	1869.628112945857	2
0	12475	1869.733447796633	1
0	12477	1870.544130641138	0
0	12567	1887.283044759459	1
0	12568	1887.998674278112	0
0	12585	1889.323602839763	1
0	12586	1889.323602839763	2
0	12587	1889.498674278112	1
0	12589	1889.841957492921	0
0	12595	1890.206038877402	1
0	12596	1890.350894244107	0
0	12672	1904.631212187558	1
0	12673	1904.646044148442	0
0	12700	1909.854450037273	1
0	12701	1910.183562639144	0
0	12707	1910.452082534382	1
0	12708	1910.922442727654	0
0	12742	1914.759762314128	1
0	12743	1914.832802141656	0
0	12868	1934.882759835191	1
0	12869	1935.53273731723	0
0	12889	1937.600816333923	1
0	12890	1937.777564839259	0
0	12910	1940.3373849063	1
0	12911	1940.473565093659	0
0	12917	1941.217218921134	1
0	12918	1941.33731740264	0
0	12924	1941.823315448577	1
0	12925	1941.8373849063	0
0	12980	1951.67843836978	1
0	12981	1951.764913619618	0
0	12987	1952.760278916388	1
0	12988	1953.132125253365	0
0	13036	1959.839775149529	1
0	13037	1960.192953797696	0
0	13043	1960.413286282134	1
0	13045	1960.646917415635	2
0	13046	1960.646917415635	3
0	13047	1960.780855050198	2
0	13048	1960.780855050198	1
0	13051	1961.339775149529	0
0	13054	1961.537517739782	1
0	13055	1961.537517739782	2
0	13056	1961.692953797696	1
0	13058	1961.913286282134	0
0	13092	1966.75348215882	1
0	13094	1967.172696617755	2
0	13095	1967.172696617755	3
0	13096	1967.333462846984	2
0	13097	1967.333462846984	1
0	13100	1967.53805520527	0
0	13106	1967.757625235943	1
0	13107	1968.25348215882	0
0	13110	1968.288993235993	1
0	13111	1968.288993235993	2
0	13112	1968.833462846984	1
0	13113	1968.833462846984	0
0	13218	1988.601663723743	1
0	13219	1988.86970635556	0
0	13239	1990.558905593286	1
0	13240	1990.919361443114	0
0	13257	1992.206697112693	1
0	13258	1992.206697112693	2
0	13259	1992.419361443114	1
0	13262	1992.688161732942	2
0	13263	1992.688161732942	3
0	13264	1993.313970177148	2
0	13265	1993.313970177148	1
0	13269	1993.466403453678	2
0	13270	1993.466403453678	3
0	13271	1993.645715479344	2
0	13272	1993.645715479344	1
0	13275	1993.919361443114	0
0	13278	1994.313951905882	1
0	13279	1994.313951905882	2
0	13281	1994.692460571513	3
0	13282	1994.692460571513	4
0	13283	1994.813970177148	3
0	13284	1994.813970177148	2
0	13288	1995.042052178547	3
0	13289	1995.042052178547	4
0	13290	1995.145715479344	3