version 3
run MMc-23-20221127-11:38:41-7588
attr configname MMc
attr datetime 20221127-11:38:41
attr datetimef 20221127-113841
attr experiment MMc
attr inifile omnetpp.ini
attr iterationvars "$mean=uniform(0.5s, 1.5s), $dev=0.5*(uniform(0.5s, 1.5s)), $time=1.5, $num=5, $0=33434, $1=56673, $2=23567"
attr iterationvarsd mean=uniform(0.5s,_1.5s)/dev=0.5#2a(uniform(0.5s,_1.5s))/time=1.5/num=5/33434/56673/23567
attr iterationvarsf mean=uniform(0.5s,_1.5s),dev=0.5#2a(uniform(0.5s,_1.5s)),time=1.5,num=5,33434,56673,23567-
attr measurement "$mean=uniform(0.5s, 1.5s), $dev=0.5*(uniform(0.5s, 1.5s)), $time=1.5, $num=5, $0=33434, $1=56673, $2=23567"
attr network MMc
attr processid 7588
attr repetition 3
attr replication #3
attr resultdir results
attr runnumber 23
attr seedset 23
itervar dev "0.5*(uniform(0.5s, 1.5s))"
itervar mean "uniform(0.5s, 1.5s)"
itervar num 5
itervar time 1.5
config description "MMc module"
config network MMc
config MMc.source.interArrivalTime "truncnormal(uniform(0.5s, 1.5s), 0.5*(uniform(0.5s, 1.5s)))"
config MMc.mmc.serviceTime 1.5s
config MMc.mmc.c 5
config MMc.mmc.capacity 10000
config record-eventlog false
config **.scalar-recording true
config **.vector-recording true
config repeat 4
config seed-1-mt 33434
config seed-2-mt 56673
config seed-3-mt 23567
config output-vector-file MMc-5-1.5-results/3.vec
config output-scalar-file MMc-5-1.5-results/3.sca

vector 0 MMc.mmc queueLength:vector ETV
attr interpolationmode none
attr recordingmode vector
attr title "queue length"
vector 1 MMc.mmc util:vector ETV
attr interpolationmode none
attr recordingmode vector
attr title resources
0	0	0	0
0	30	14.615092355918	1
0	31	14.888670315271	0
0	72	21.155854180107	1
0	73	21.215156261886	0
0	100	24.260095939965	1
0	101	24.762484147038	0
0	121	26.62365848481	1
0	122	27.158177565643	0
0	268	54.868739343859	1
0	270	55.523955982161	2
0	271	55.523955982161	3
0	272	55.764075955566	2
0	273	55.764075955566	1
0	276	56.137447160579	0
0	282	56.301982609025	1
0	283	56.368739343859	0
0	303	58.673696717338	1
0	304	59.209653808215	0
0	310	59.290973936446	1
0	311	60.026015452473	0
0	317	60.166988939352	1
0	318	60.173696717338	0
0	338	62.377478824639	1
0	340	62.457003083834	2
0	341	62.457003083834	3
0	342	63.086266092668	2
0	343	63.086266092668	1
0	347	63.168951370241	2
0	348	63.168951370241	3
0	349	63.498362873229	2
0	350	63.498362873229	1
0	354	63.687662494387	2
0	355	63.687662494387	3
0	356	63.877478824639	2
0	358	64.586266092668	1
0	359	64.586266092668	0
0	363	64.91602549507	1
0	364	64.91602549507	2
0	365	64.998362873229	1
0	366	64.998362873229	0
0	373	65.388379706261	1
0	374	66.086266092668	0
0	429	75.279648006058	1
0	430	75.306359780966	0
0	471	81.91321773911	1
0	472	82.309105959231	0
0	562	94.908075345976	1
0	563	94.954752712171	0
0	569	95.716250773579	1
0	571	95.729551782036	2
0	572	95.729551782036	3
0	573	96.069397253936	2
0	574	96.069397253936	1
0	578	96.387972652822	2
0	579	96.387972652822	3
0	580	96.408075345976	2
0	582	96.454752712171	1
0	584	97.216250773579	0
0	587	97.434608568507	1
0	588	97.434608568507	2
0	589	97.569397253936	1
0	590	97.569397253936	0
0	737	122.837379558171	1
0	738	123.875699752019	0
0	786	130.808426477132	1
0	787	131.098857967554	0
0	898	150.888802280247	1
0	899	150.937027300177	0
0	940	156.627479833466	1
0	941	157.054376167615	0
0	947	157.801180611832	1
0	948	158.089598515541	0
0	968	160.340758649822	1
0	969	160.882805138574	0
0	975	160.98321800622	1
0	977	161.275370375586	2
0	978	161.275370375586	3
0	979	161.400052524947	2
0	980	161.400052524947	1
0	983	161.840758649822	0
0	1045	170.738407647854	1
0	1046	170.940296769278	0
0	1052	171.323263434682	1
0	1053	171.752461802929	0
0	1164	190.373184554024	1
0	1165	190.63633014337	0
0	1171	191.029534352289	1
0	1172	191.444822367937	0
0	1178	191.680619673224	1
0	1179	191.873184554024	0
0	1199	193.936967128379	1
0	1200	194.208647270344	0
0	1241	200.747706137678	1
0	1242	201.436053535332	0
0	1248	201.742321328868	1
0	1250	201.787496797766	2
0	1251	201.787496797766	3
0	1252	202.19736374502	2
0	1253	202.19736374502	1
0	1256	202.247706137678	0
0	1290	207.412190858068	1
0	1291	207.84199189814	0
0	1297	207.878973904995	1
0	1298	208.544036062694	0
0	1304	208.577439764531	1
0	1305	208.912190858068	0
0	1339	212.974736698508	1
0	1340	213.095914753923	0
0	1374	217.597797405615	1
0	1375	218.42391624714	0
0	1381	218.479674140564	1
0	1382	218.845666128318	0
0	1388	219.043200162456	1
0	1389	219.097797405615	0
0	1392	219.595812587966	1
0	1393	219.595812587966	2
0	1394	219.92391624714	1
0	1396	219.979674140564	0
0	1570	246.374771529497	1
0	1572	246.515537597574	2
0	1573	246.515537597574	3
0	1574	246.559400947945	2
0	1575	246.559400947945	1
0	1578	247.434127745003	0
0	1584	247.684811429101	1
0	1585	247.874771529497	0
0	1661	261.1121490545	1
0	1662	261.505163941734	0
0	1675	262.337060158732	1
0	1677	262.375445439787	2
0	1678	262.375445439787	3
0	1679	262.6121490545	2
0	1682	262.796081961445	3
0	1683	262.796081961445	4
0	1684	263.005163941734	3
0	1686	263.461643853051	2
0	1687	263.461643853051	1
0	1690	263.837060158732	0
0	1693	263.958053272747	1
0	1694	263.958053272747	2
0	1695	264.1121490545	1
0	1697	264.505163941734	0
0	1717	266.291372912534	1
0	1718	266.513761551979	0
0	1752	271.086250538714	1
0	1753	271.104735695789	0
0	1759	271.714876504891	1
0	1760	272.488632800722	0
0	1777	273.977466884464	1
0	1778	273.977466884464	2
0	1779	273.988632800722	1
0	1781	274.123706542802	0
0	1808	277.697647239089	1
0	1809	277.939190411879	0
0	1892	290.691201712024	1
0	1893	290.702208168166	0
0	1913	293.255949993195	1
0	1914	293.48389473749	0
0	1934	295.906388494318	1
0	1936	296.450401565889	2
0	1937	296.450401565889	3
0	1938	296.704719377654	2
0	1939	296.704719377654	1
0	1942	297.234435919463	0
0	2074	316.853804077005	1
0	2075	317.415349908481	0
0	2081	317.755256884127	1
0	2082	317.816772783879	0
0	2172	331.096184935638	1
0	2173	331.418682726746	0
0	2228	342.083643342778	1
0	2229	342.447759019401	0
0	2270	347.26831635194	1
0	2271	347.403537285311	0
0	2277	347.920553755054	1
0	2278	348.333558618251	0
0	2305	351.888613896849	1
0	2306	351.95821904095	0
0	2396	364.782554782402	1
0	2397	364.873104973525	0
0	2403	365.256407298731	1
0	2404	366.019569022686	0
0	2410	366.204755773783	1
0	2411	366.282554782402	0
0	2508	384.384342042705	1
0	2509	384.785170612608	0
0	2606	398.369963995804	1
0	2607	398.42514332082	0
0	2613	399.213268630335	1
0	2614	399.283016142549	0
0	2655	404.978167081076	1
0	2657	405.384122913845	2
0	2658	405.384122913845	3
0	2659	406.183577502417	2
0	2660	406.183577502417	1
0	2663	406.478048641436	0
0	2673	407.043335223131	1
0	2674	407.043335223131	2
0	2676	407.35980407113	3
0	2677	407.35980407113	4
0	2678	407.683577502417	3
0	2679	407.683577502417	2
0	2682	407.978048641436	1
0	2684	408.255471986815	0
0	2690	408.873006179113	1
0	2691	409.183577502417	0
0	2704	410.273891384784	1
0	2705	410.373006179113	0
0	2711	410.686251580401	1
0	2712	411.557077289112	0
0	2739	415.170805117603	1
0	2740	415.454320381456	0
0	2746	415.708130146357	1
0	2747	415.986082663392	0
0	2753	416.439092229315	1
0	2754	416.670805117603	0
0	2757	416.827439265569	1
0	2758	416.827439265569	2
0	2759	416.954320381456	1
0	2761	417.208130146357	0
0	2837	428.482300426567	1
0	2838	428.643348187886	0
0	2844	429.004227793271	1
0	2845	429.208544266935	0
0	3005	458.660925494605	1
0	3006	458.693234081727	0
0	3012	459.003736146247	1
0	3013	459.275581512445	0
0	3019	460.086801493202	1
0	3020	460.160925494605	0
0	3054	464.134539492465	1
0	3055	464.80215147853	0
0	3061	465.398525388935	1
0	3062	465.426850323709	0
0	3103	472.211251009057	1
0	3104	472.407582446122	0
0	3152	479.907934297352	1
0	3153	479.958001991453	0
0	3187	485.565928228139	1
0	3188	485.642138391425	0
0	3208	487.987249033682	1
0	3209	488.047689967033	0
0	3250	495.129338205955	1
0	3251	495.145103501573	0
0	3271	497.769011137109	1
0	3272	497.941240145226	0
0	3306	503.158482270326	1
0	3307	503.18006754946	0
0	3334	507.448677553399	1
0	3335	507.862049726845	0
0	3355	509.706417080555	1
0	3356	509.784161487018	0
0	3362	510.556916522495	1
0	3363	511.095081864519	0
0	3432	519.525643203183	1
0	3433	519.695203115056	0
0	3572	544.747532100785	1
0	3573	545.16780663772	0
0	3663	559.700979453094	1
0	3664	559.911700588659	0
0	3670	560.242146171746	1
0	3671	560.69061229156	0
0	3698	563.745319851094	1
0	3699	563.823773269317	0
0	3705	564.044156108649	1
0	3707	564.479382185281	2
0	3708	564.479382185281	3
0	3709	564.95736338803	2
0	3710	564.95736338803	1
0	3713	565.245319851094	0
0	3810	580.414709241561	1
0	3812	580.771491714656	2
0	3813	580.771491714656	3
0	3814	581.259413905755	2
0	3815	581.259413905755	1
0	3819	581.804538503113	2
0	3820	581.804538503113	3
0	3821	581.822595465768	2
0	3822	581.822595465768	1
0	3825	581.914709241561	0
0	3887	592.323206478647	1
0	3888	592.325911281276	0
0	3915	596.421408619083	1
0	3916	596.790411266141	0
0	3922	597.456781881975	1
0	3923	597.586022152119	0
0	3943	600.259191894552	1
0	3944	600.444760748375	0
0	3978	605.76195803933	1
0	3979	605.886559172833	0
0	3985	606.566773790367	1
0	3986	606.601328980621	0
0	3992	607.222975084165	1
0	3993	607.26195803933	0
0	4013	609.355466126337	1
0	4014	609.855536432371	0
0	4020	610.116447851592	1
0	4021	610.260611801323	0
0	4069	617.314854616132	1
0	4070	617.525863969398	0
0	4160	631.665967928619	1
0	4161	631.972028816245	0
0	4195	635.625376814473	1
0	4196	635.770475326744	0
0	4244	643.400723908453	1
0	4245	643.603889225925	0
0	4251	644.432446864422	1
0	4252	644.597956364357	0
0	4328	655.665409609484	1
0	4329	655.723957012849	0
0	4363	661.49362178493	1
0	4364	662.091592943011	0
0	4370	662.475443290059	1
0	4371	662.650925001172	0
0	4391	664.388987987568	1
0	4392	664.721258883754	0
0	4398	665.391898934734	1
0	4399	665.527437511664	0
0	4412	666.838881165407	1
0	4413	666.891898934734	0
0	4440	670.489802618445	1
0	4442	670.934742124909	2
0	4443	670.934742124909	3
0	4444	671.295258540379	2
0	4445	671.295258540379	1
0	4449	671.364069757636	2
0	4450	671.364069757636	3
0	4451	671.690394959758	2
0	4452	671.690394959758	1
0	4455	671.989802618445	0
0	4458	672.113381950477	1
0	4459	672.113381950477	2
0	4460	672.795258540379	1
0	4461	672.795258540379	0
0	4517	680.467983117656	1
0	4518	680.537547885037	0
0	4524	680.858088388647	1
0	4526	681.451404881295	2
0	4527	681.451404881295	3
0	4528	681.6639976215	2
0	4529	681.6639976215	1
0	4532	681.967983117656	0
0	4538	682.291949042478	1
0	4539	682.358088388647	0
0	4559	684.997608461055	1
0	4560	685.157786167713	0
0	4580	687.683908825491	1
0	4581	687.798980562215	0
0	4615	693.302448726589	1
0	4616	693.304920191807	0
0	4643	697.667779677561	1
0	4644	698.018706454476	0
0	4650	698.288978888989	1
0	4651	698.712132966076	0
0	4692	705.174180054409	1
0	4694	705.26166745766	2
0	4695	705.26166745766	3
0	4696	705.444129498892	2
0	4697	705.444129498892	1
0	4700	705.634118991338	0
0	4706	705.683276394516	1
0	4707	706.674180054409	0
0	4797	720.334252927263	1
0	4798	720.346763848246	0
0	4804	720.474956787332	1
0	4805	721.032247005263	0
0	4811	721.667702850945	1
0	4812	721.834252927263	0
0	4832	723.857434047559	1
0	4833	724.373598351613	0
0	4937	739.402319218469	1
0	4938	739.628531833456	0
0	5105	769.593687360867	1
0	5106	769.599983689557	0
0	5189	784.541267001695	1
0	5190	785.121187991888	0
0	5224	790.357844339003	1
0	5225	790.559017772134	0
0	5273	796.600566522959	1
0	5274	797.23230538365	0
0	5280	797.364296212244	1
0	5281	798.078303995476	0
0	5308	800.847376716876	1
0	5309	801.124319102846	0
0	5315	801.507101654706	1
0	5316	801.654735962229	0
0	5322	802.327718773116	1
0	5323	802.347376716876	0
0	5329	802.746661915012	1
0	5330	803.007101654706	0
0	5350	805.15310428991	1
0	5351	805.774330977482	0
0	5406	813.504900773993	1
0	5407	814.271605373846	0
0	5434	817.535989405065	1
0	5435	818.231051834213	0
0	5455	820.414385867681	1
0	5456	820.46536538918	0
0	5469	821.293073062593	1
0	5470	821.914385867681	0
0	5476	822.40516930518	1
0	5477	822.778176514833	0
0	5623	849.315768177735	1
0	5624	849.425644443024	0
0	5630	849.97305705636	1
0	5631	850.025399348933	0
0	5735	866.042610716139	1
0	5736	866.475706461801	0
0	5763	870.342844602402	1
0	5764	870.649473198548	0
0	5812	879.35499816678	1
0	5814	880.02453184309	2
0	5815	880.02453184309	3
0	5816	880.035434698528	2
0	5817	880.035434698528	1
0	5820	880.373402579704	0
0	5826	880.472981177845	1
0	5827	880.85499816678	0
0	5830	881.208652893496	1
0	5831	881.208652893496	2
0	5832	881.535434698528	1
0	5833	881.535434698528	0
0	5837	881.742090548571	1
0	5838	881.742090548571	2
0	5839	881.873402579704	1
0	5841	881.972981177845	0
0	5847	882.456627298872	1
0	5848	883.035434698528	0
0	5896	891.023234549431	1
0	5897	891.654923944836	0
0	5903	891.81432843056	1
0	5904	892.116213125731	0
0	6015	910.683845701514	1
0	6016	911.600564874786	0
0	6106	927.793746256119	1
0	6107	927.939145213087	0
0	6113	928.772561496751	1
0	6114	928.813580170292	0
0	6155	934.554738837612	1
0	6156	934.795646316206	0
0	6162	935.540889953144	1
0	6163	935.847207946022	0
0	6176	936.536827922852	1
0	6177	937.040889953144	0
0	6183	937.430129368825	1
0	6184	937.780046715251	0
0	6190	937.808776037616	1
0	6191	938.036827922852	0
0	6211	940.22045628887	1
0	6212	940.797524669793	0
0	6218	941.03033790234	1
0	6220	941.456185277916	2
0	6221	941.456185277916	3
0	6222	941.646526973362	2
0	6223	941.646526973362	1
0	6226	941.72045628887	0
0	6267	947.238853925375	1
0	6268	947.588390415341	0
0	6274	947.691278932873	1
0	6275	947.775998742584	0
0	6281	948.379402354308	1
0	6283	948.552258126261	2
0	6284	948.552258126261	3
0	6285	948.738853925375	2
0	6287	949.088390415341	1
0	6289	949.191278932873	0
0	6295	949.667810642984	1
0	6296	949.879402354308	0
0	6302	950.361971979478	1
0	6303	950.588390415341	0
0	6309	950.942395304695	1
0	6310	951.167810642984	0
0	6323	952.333462873301	1
0	6324	952.442395304695	0
0	6330	952.855553871149	1
0	6331	953.586917214976	0
0	6337	953.656265540833	1
0	6338	953.833462873301	0
0	6400	964.823205655259	1
0	6401	964.891906888036	0
0	6435	970.679542332274	1
0	6436	970.848157099315	0
0	6519	985.885772158939	1
0	6520	986.190826716807	0
0	6526	987.145714128482	1
0	6527	987.251438133445	0
0	6561	992.274592419855	1
0	6562	992.320539663154	0
0	6603	998.355541776957	1
0	6604	998.985533195888	0
0	6652	1005.543038368055	1
0	6653	1006.265337146047	0
0	6757	1025.416556844114	1
0	6758	1025.614504519462	0
0	6764	1026.626907653652	1
0	6765	1026.627020639492	0
0	6862	1044.317255732979	1
0	6864	1044.551503774527	2
0	6865	1044.551503774527	3
0	6866	1044.791308896547	2
0	6867	1044.791308896547	1
0	6870	1045.265443110304	0
0	6876	1045.794460855196	1
0	6877	1045.817255732979	0
0	6890	1047.091925647415	1
0	6891	1047.294460855196	0
0	6918	1051.628240908573	1
0	6919	1051.778844345835	0
0	6939	1054.0035014571	1
0	6940	1054.011063524046	0
0	7002	1065.012280925545	1
0	7003	1065.349542324586	0
0	7058	1073.720189992277	1
0	7059	1073.783071404918	0
0	7128	1083.426364033665	1
0	7129	1084.007618067036	0
0	7177	1091.967600253579	1
0	7178	1092.888389140774	0
0	7219	1098.154844597804	1
0	7220	1098.178057316646	0
0	7240	1100.279307228389	1
0	7242	1100.685898765279	2
0	7243	1100.685898765279	3
0	7244	1101.050334055884	2
0	7245	1101.050334055884	1
0	7248	1101.32018869763	0
0	7296	1108.687997120369	1
0	7297	1109.408036532288	0
0	7324	1112.092002297429	1
0	7325	1112.452247268918	0
0	7415	1127.769185455998	1
0	7416	1127.977842608849	0
0	7443	1131.286439877964	1
0	7444	1131.985441479053	0
0	7492	1139.323585061443	1
0	7493	1139.437342667551	0
0	7695	1173.078446660078	1
0	7696	1173.526511629035	0
0	7786	1187.099074952653	1
0	7787	1187.581880994463	0
0	7814	1192.592676820245	1
0	7815	1193.007554580212	0
0	7821	1193.591267980618	1
0	7822	1193.643304893029	0
0	7877	1202.111008193347	1
0	7878	1203.214549795558	0
0	7926	1209.171526960627	1
0	7927	1209.18357602965	0
0	7989	1218.504503051259	1
0	7990	1218.820762719402	0
0	8080	1235.4160013582	1
0	8081	1235.456848443622	0
0	8101	1238.142993900238	1
0	8102	1238.37031873023	0
0	8108	1238.851203772096	1
0	8109	1239.259949358542	0
0	8290	1269.050923227276	1
0	8291	1269.103562285053	0
0	8339	1278.053130139678	1
0	8340	1278.183431090726	0
0	8346	1278.364381038444	1
0	8347	1278.824905946806	0
0	8367	1280.547875882817	1
0	8368	1281.238443125863	0
0	8409	1287.185745497089	1
0	8410	1287.621272094401	0
0	8451	1292.857549589391	1
0	8453	1293.61036768692	2
0	8454	1293.61036768692	3
0	8456	1293.680583465851	4
0	8457	1293.680583465851	5
0	8458	1293.707514152086	4
0	8459	1293.707514152086	3
0	8462	1293.981052700238	2
0	8463	1293.981052700238	1
0	8467	1294.348068624616	2
0	8468	1294.348068624616	3
0	8469	1294.357549589391	2
0	8471	1295.207514152086	1
0	8472	1295.207514152086	0
0	8486	1296.561116725035	1
0	8487	1296.707514152086	0
0	8521	1302.304423069077	1
0	8522	1302.376357210749	0
0	8563	1308.209550265188	1
0	8564	1308.309275556618	0
0	8570	1308.885301982686	1
0	8571	1309.049641126885	0
0	8605	1313.127026849017	1
0	8606	1313.228417577365	0
0	8794	1347.0970073549	1
0	8795	1347.413646379061	0
0	8815	1349.868516544319	1
0	8816	1350.224119477563	0
0	8822	1350.939550555468	1
0	8823	1351.005063878341	0
0	8871	1358.409655040335	1
0	8872	1358.466870917503	0
0	8899	1361.833471665817	1
0	8900	1362.393291226764	0
0	8906	1363.046115808475	1
0	8907	1363.25341700367	0
0	8934	1366.197576271864	1
0	8935	1366.224465813975	0
0	8941	1366.991983581035	1
0	8942	1367.322268585525	0
0	9144	1398.478252704894	1
0	9145	1398.780392057503	0
0	9151	1398.858502359129	1
0	9153	1399.374604499126	2
0	9154	1399.374604499126	3
0	9155	1399.67268195706	2
0	9156	1399.67268195706	1
0	9159	1399.978252704894	0
0	9162	1400.210104214891	1
0	9163	1400.210104214891	2
0	9164	1400.280392057503	1
0	9166	1400.358502359129	0
0	9242	1412.27409467469	1
0	9243	1412.409777328119	0
0	9263	1414.945209337464	1
0	9264	1415.150788754422	0
0	9284	1418.322449010362	1
0	9285	1418.715105894953	0
0	9305	1420.361224600794	1
0	9306	1420.916723852949	0
0	9340	1426.312513205167	1
0	9341	1426.400025562213	0
0	9347	1426.903321977005	1
0	9348	1427.712035652781	0
0	9365	1429.163987443219	1
0	9366	1429.163987443219	2
0	9367	1429.212035652781	1
0	9369	1430.005672220024	0
0	9487	1447.482271443253	1
0	9488	1447.800720264001	0
0	9515	1451.656683633167	1
0	9516	1451.837260557306	0
0	9522	1452.131193626706	1
0	9523	1452.906663464262	0
0	9571	1459.151690847879	1
0	9572	1459.36815910383	0
0	9578	1460.248089832453	1
0	9579	1460.466452267093	0
0	9613	1465.248331965099	1
0	9614	1465.741464471721	0
0	9648	1470.135164649568	1
0	9649	1470.596675177309	0
0	9655	1471.3445398135	1
0	9656	1471.570614470835	0
0	9739	1487.207448664691	1
0	9740	1487.525248977456	0
0	9746	1487.794391113812	1
0	9747	1488.166854703893	0
0	9753	1488.357710426372	1
0	9754	1488.707448664691	0
0	9757	1488.872266757067	1
0	9758	1488.872266757067	2
0	9759	1489.025248977456	1
0	9761	1489.294391113812	0
0	9788	1492.388959543267	1
0	9789	1492.71316957066	0
0	9795	1492.933532716559	1
0	9796	1493.565134827342	0
0	9893	1510.064178418118	1
0	9894	1510.108044780656	0
0	9984	1524.638992101938	1
0	9986	1524.641994208716	2
0	9987	1524.641994208716	3
0	9988	1525.342118057619	2
0	9989	1525.342118057619	1
0	9993	1525.502858583075	2
0	9994	1525.502858583075	3
0	9995	1525.898985977276	2
0	9996	1525.898985977276	1
0	10000	1525.961408990035	2
0	10001	1525.961408990035	3
0	10002	1526.138992101938	2
0	10004	1526.842118057619	1
0	10005	1526.842118057619	0
0	10009	1527.069863125826	1
0	10010	1527.069863125826	2
0	10011	1527.398985977276	1
0	10012	1527.398985977276	0
0	10054	1534.026692893772	1
0	10055	1534.054536005852	0
0	10061	1534.546325989823	1
0	10062	1534.878463362267	0
0	10075	1535.720810456576	1
0	10076	1536.046325989823	0
0	10082	1536.875799670576	1
0	10083	1537.162304267062	0
0	10096	1538.065533574863	1
0	10097	1538.375799670576	0
0	10145	1546.389379332662	1
0	10146	1546.667300016275	0
0	10222	1557.520789337211	1
0	10223	1557.943201512365	0
0	10341	1577.617967742091	1
0	10343	1578.101175019264	2
0	10344	1578.101175019264	3
0	10345	1578.139491170415	2
0	10346	1578.139491170415	1
0	10349	1578.560338738039	0
0	10425	1590.139743650425	1
0	10426	1590.322194842982	0
0	10467	1595.559617496367	1
0	10469	1596.366012557778	2
0	10470	1596.366012557778	3
0	10471	1596.415068341615	2
0	10472	1596.415068341615	1
0	10475	1596.425648356556	0
0	10537	1606.141058278617	1
0	10539	1606.371299989279	2
0	10540	1606.371299989279	3
0	10541	1606.844533956507	2
0	10542	1606.844533956507	1
0	10545	1607.114721960824	0
0	10551	1607.209555471662	1
0	10552	1607.641058278617	0
0	10593	1613.435121014419	1
0	10594	1613.778208974876	0
0	10614	1616.269363823742	1
0	10615	1616.321092010697	0
0	10621	1616.621474707324	1
0	10622	1616.899972649786	0
0	10628	1617.586839305885	1
0	10629	1617.769363823742	0
0	10740	1634.542846020984	1
0	10741	1634.761048357029	0
0	10747	1635.059199949867	1
0	10748	1635.467081055404	0
0	10817	1647.740738273025	1
0	10818	1647.996252228085	0
0	10852	1653.459552912805	1
0	10853	1653.802727804945	0
0	10859	1653.895814230819	1
0	10860	1654.240399239957	0
0	10922	1662.966834442151	1
0	10923	1663.443410081908	0
0	10929	1664.101741993136	1
0	10930	1664.333173185916	0
0	10971	1670.75805449292	1
0	10972	1670.987104986669	0
0	10978	1671.340827375914	1
0	10979	1671.832944374278	0
0	10985	1672.008623757911	1
0	10986	1672.25805449292	0
0	11118	1691.557679396424	1
0	11119	1691.884232894573	0
0	11160	1699.054486571961	1
0	11161	1699.123977444984	0
0	11216	1708.104424321882	1
0	11217	1708.543172725285	0
0	11223	1709.029954436794	1
0	11224	1709.580869758429	0
0	11279	1718.146951659091	1
0	11280	1718.476308090853	0
0	11314	1723.230513736553	1
0	11315	1723.368483116305	0
0	11349	1728.416899475092	1
0	11350	1728.519437581003	0
0	11377	1732.027002038717	1
0	11378	1732.322917945709	0
0	11426	1738.61472485369	1
0	11427	1738.855007331013	0
0	11433	1739.440466342486	1
0	11434	1739.457000910285	0
0	11454	1741.839315432057	1
0	11455	1742.143983903693	0
0	11461	1742.565503028424	1
0	11462	1742.726043538525	0
0	11482	1746.207288864568	1
0	11483	1746.236685052351	0
0	11545	1755.142112888808	1
0	11546	1755.281023877292	0
0	11552	1755.641341120431	1
0	11553	1756.554375344856	0
0	11570	1757.372233216133	1
0	11571	1757.372233216133	2
0	11572	1758.054375344856	1
0	11574	1758.261752771895	0
0	11580	1758.517405488372	1
0	11581	1758.691182240014	0
0	11587	1759.159724421726	1
0	11588	1759.554375344856	0
0	11678	1774.326706273619	1
0	11679	1774.577970319657	0
0	11692	1775.536971650537	1
0	11693	1775.826706273619	0
0	11699	1776.452373265256	1
0	11700	1776.512954534562	0
0	11741	1785.058242192412	1
0	11742	1785.14301709585	0
0	11867	1804.423376146054	1
0	11868	1804.488556903124	0
0	11902	1811.084180887287	1
0	11904	1811.375434608127	2
0	11905	1811.375434608127	3
0	11906	1811.418246928875	2
0	11907	1811.418246928875	1
0	11911	1811.965858839375	2
0	11912	1811.965858839375	3
0	11913	1811.969205515042	2
0	11914	1811.969205515042	1
0	11918	1812.438704992494	2
0	11919	1812.438704992494	3
0	11920	1812.584180887287	2
0	11922	1812.918246928875	1
0	11923	1812.918246928875	0
0	11927	1813.383489000636	1
0	11928	1813.383489000636	2
0	11929	1813.469205515042	1
0	11930	1813.469205515042	0
0	11934	1813.472179286713	1
0	11935	1813.472179286713	2
0	11937	1813.992916492501	3
0	11938	1813.992916492501	4
0	11939	1814.084180887287	3
0	11942	1814.398487959878	4
0	11943	1814.398487959878	5
0	11944	1814.418246928875	4
0	11945	1814.418246928875	3
0	11948	1814.969205515042	2
0	11949	1814.969205515042	1
0	11952	1815.584180887287	0
0	11955	1815.831902331315	1
0	11956	1815.831902331315	2
0	11957	1815.918246928875	1
0	11958	1815.918246928875	0
0	11969	1816.865982507776	1
0	11970	1816.865982507776	2
0	11971	1817.084180887287	1
0	11973	1817.418246928875	0
0	12070	1832.617637174912	1
0	12071	1832.644438404908	0
0	12140	1844.086044844499	1
0	12141	1844.26124690266	0
0	12203	1854.916490133878	1
0	12204	1854.939219172872	0
0	12231	1858.593675264668	1
0	12232	1858.761529831647	0
0	12273	1865.978246351389	1
0	12274	1866.279655391247	0
0	12280	1866.920338878158	1
0	12281	1867.013059810162	0
0	12301	1869.46106699528	1
0	12302	1869.512087359287	0
0	12315	1870.893386488983	1
0	12316	1870.96106699528	0
0	12329	1872.292059561791	1
0	12330	1872.393386488983	0
0	12336	1872.745299443435	1
0	12338	1873.202955005152	2
0	12339	1873.202955005152	3
0	12340	1873.322327657888	2
0	12341	1873.322327657888	1
0	12344	1873.792059561791	0
0	12347	1873.88782452658	1
0	12348	1873.88782452658	2
0	12349	1873.893386488983	1
0	12351	1874.245299443435	0
0	12413	1886.735488171446	1
0	12414	1886.822233257109	0
0	12448	1891.82786557294	1
0	12449	1891.868761353127	0
0	12532	1905.555647848068	1
0	12533	1905.954940031125	0
0	12588	1914.1123337279	1
0	12589	1914.256912351898	0
0	12609	1916.436669514496	1
0	12611	1916.651479652273	2
0	12612	1916.651479652273	3
0	12613	1917.001436790598	2
0	12614	1917.001436790598	1
0	12617	1917.708078164956	0
0	12637	1919.518458227412	1
0	12638	1919.641183267389	0
0	12644	1920.383760895568	1
0	12645	1920.547064132223	0
0	12651	1920.701697129483	1
0	12652	1921.018458227412	0
0	12658	1921.715180739314	1
0	12659	1921.883760895568	0
0	12693	1927.120586663084	1
0	12694	1927.341172827016	0
0	12714	1929.355648363912	1
0	12716	1929.45480091978	2
0	12717	1929.45480091978	3
0	12718	1929.923365805979	2
0	12719	1929.923365805979	1
0	12722	1930.632917983178	0
0	12728	1930.661058121207	1
0	12729	1930.855648363912	0
0	12749	1932.852740475837	1
0	12750	1933.562819098039	0
0	12756	1933.805125565947	1
0	12757	1933.937003525801	0
0	12805	1940.301203557935	1
0	12806	1940.492293749538	0
0	12896	1955.583267256524	1
0	12897	1955.796441834705	0
0	12924	1960.542500160787	1
0	12925	1960.756208133162	0
0	12945	1963.665087292495	1
0	12947	1963.787992632482	2
0	12948	1963.787992632482	3
0	12950	1963.929872956222	4
0	12951	1963.929872956222	5
0	12952	1964.039343645434	4
0	12953	1964.039343645434	3
0	12956	1964.709623345713	2
0	12957	1964.709623345713	1
0	12961	1964.967056259843	2
0	12962	1964.967056259843	3
0	12963	1965.165087292495	2
0	12965	1965.539343645434	1
0	12966	1965.539343645434	0
0	12970	1965.662613906017	1
0	12971	1965.662613906017	2
0	12972	1966.209623345713	1
0	12973	1966.209623345713	0
0	12987	1967.452519776811	1
0	12989	1967.563946963123	2
0	12990	1967.563946963123	3
0	12991	1967.709623345713	2
0	12992	1967.709623345713	1
0	12995	1968.674766264667	0
0	13001	1968.863775224033	1
0	13002	1968.952519776811	0
0	13029	1972.45534976717	1
0	13031	1972.85827827802	2
0	13032	1972.85827827802	3
0	13033	1973.022847022199	2
0	13034	1973.022847022199	1
0	13038	1973.245860496366	2
0	13039	1973.245860496366	3
0	13040	1973.726493770438	2
0	13041	1973.726493770438	1
0	13044	1973.95534976717	0
0	13047	1974.072801925471	1
0	13048	1974.072801925471	2
0	13050	1974.218831428447	3
0	13051	1974.218831428447	4
0	13052	1974.522847022199	3
0	13053	1974.522847022199	2
0	13057	1974.786888254811	3
0	13058	1974.786888254811	4
0	13059	1975.226493770438	3
0	13060	1975.226493770438	2
0	13063	1975.45534976717	1
0	13066	1975.774830780096	2
0	13067	1975.774830780096	3
0	13068	1976.022847022199	2
0	13069	1976.022847022199	1
0	13072	1976.726493770438	0
0	13127	1983.667859190349	1
0	13128	1983.732086584322	0
0	13183	1992.748908992391	1
0	13184	1992.976899121758	0
0	13190	1993.283234721243	1
0	13191	1994.060979158145	0
0	13302	2012.830442879566	1
0	13303	2012.835511975547	0
0	13323	2015.746127994973	1
0	13324	2016.177390451851	0
0	13372	2022.64757988052	1
0	13373	2023.136319681658	0
0	13379	2023.51365555261	1
0	13380	2023.87038195536	0
0	13435	2031.300772339919	1
0	13436	2031.496229682164	0
0	13442	2031.835116245485	1
0	13443	2032.64279723817	0
0	13449	2032.739082090989	1
0	13450	2032.800772339919	0
0	13456	2033.132500052032	1
0	13457	2033.335116245485	0
0	13484	2037.052068079928	1
0	13485	2037.171054779419	0
0	13498	2038.094473997802	1
0	13499	2038.552068079928	0
0	13526	2041.350312804876	1
0	13527	2041.564799278401	0
0	13533	2041.749327678521	1
0	13535	2042.234990663493	2
0	13536	2042.234990663493	3
0	13537	2042.77702667879	2
0	13538	2042.77702667879	1
0	13541	2042.850312804876	0
0	13652	2060.26771141203	1
0	13653	2060.732255704171	0
0	13659	2061.158495997026	1
0	13660	2061.490445731015	0
0	13722	2073.312027246858	1
0	13723	2073.474002826963	0
0	13771	2080.233095104223	1
0	13772	2080.396721898212	0
0	13778	2080.474215950489	1
0	13780	2080.783010630991	2
0	13781	2080.783010630991	3
0	13783	2081.098658334799	4
0	13784	2081.098658334799	5
0	13785	2081.272353786143	4
0	13786	2081.272353786143	3
0	13789	2081.733095104223	2
0	13791	2081.896721898212	1
0	13793	2081.974215950489	0
0	13796	2082.036447840339	1
0	13797	2082.036447840339	2
0	13798	2082.772353786143	1
0	13799	2082.772353786143	0
0	13803	2082.901058688631	1
0	13804	2082.901058688631	2
0	13805	2083.233095104223	1
0	13808	2083.327299126546	2
0	13809	2083.327299126546	3
0	13810	2083.396721898212	2
0	13812	2083.474215950489	1
0	13815	2083.933963607929	2
0	13816	2083.933963607929	3
0	13817	2084.272353786143	2
0	13818	2084.272353786143	1
0	13821	2084.733095104223	0
0	13824	2084.782927812751	1
0	13825	2084.782927812751	2
0	13826	2084.896721898212	1
0	13828	2084.974215950489	0
0	13831	2085.496435317589	1
0	13832	2085.496435317589	2
0	13833	2085.772353786143	1
0	13834	2085.772353786143	0
0	13862	2089.980550525202	1
0	13863	2090.052495993403	0
0	13883	2093.263392492242	1
0	13884	2093.269363652605	0
0	13911	2097.595284716998	1
0	13912	2097.959379066099	0
0	13918	2098.246620336358	1
0	13919	2098.674185387654	0
0	13932	2099.741213713962	1
0	13933	2099.746620336358	0
0	14002	2112.157467750928	1
0	14003	2112.172566865179	0
0	14016	2112.941033694105	1
0	14017	2113.657467750928	0
0	14023	2113.721436817859	1
0	14024	2114.128559819826	0
0	14079	2121.732015564014	1
0	14081	2121.964112793854	2
0	14082	2121.964112793854	3
0	14083	2122.510397952328	2
0	14084	2122.510397952328	1
0	14087	2123.112727443611	0
0	14184	2138.790723126195	1
0	14185	2139.113238379606	0
0	14247	2150.96896851508	1
0	14248	2151.028385603069	0
0	14345	2167.682755821473	1
0	14346	2168.188157131747	0
0	14352	2168.945954562528	1
0	14353	2168.949792622324	0
0	14394	2175.08645260056	1