version 3
run k_MM1_rand-4-20221127-16:03:21-5740
attr configname k_MM1_rand
attr datetime 20221127-16:03:21
attr datetimef 20221127-160321
attr experiment k_MM1_rand
attr inifile omnetpp.ini
attr iterationvars "$time=1.0, $num=5, $0=53542, $1=75335, $2=34542"
attr iterationvarsd time=1.0/num=5/53542/75335/34542
attr iterationvarsf time=1.0,num=5,53542,75335,34542-
attr measurement "$time=1.0, $num=5, $0=53542, $1=75335, $2=34542"
attr network randkMM1
attr processid 5740
attr repetition 0
attr replication #0
attr resultdir results
attr runnumber 4
attr seedset 4
itervar num 5
itervar time 1.0
config description "MM1 module k-times random"
config network randkMM1
config **.source.interArrivalTime "truncnormal(0.5s, 1.5s)"
config **.serviceTime 1.0s
config **.c 5
config **.capacity 10000
config record-eventlog false
config **.scalar-recording true
config **.vector-recording true
config repeat 4
config seed-1-mt 53542
config seed-2-mt 75335
config seed-3-mt 34542
config output-vector-file k_MM1_rand-5-1.0-results/0.vec
config output-scalar-file k_MM1_rand-5-1.0-results/0.sca

vector 0 randkMM1.mm1[4] util:vector ETV
attr interpolationmode none
attr recordingmode vector
attr title resources
vector 1 randkMM1.mm1[3] util:vector ETV
attr interpolationmode none
attr recordingmode vector
attr title resources
vector 2 randkMM1.mm1[0] util:vector ETV
attr interpolationmode none
attr recordingmode vector
attr title resources
vector 3 randkMM1.mm1[2] util:vector ETV
attr interpolationmode none
attr recordingmode vector
attr title resources
vector 4 randkMM1.mm1[1] util:vector ETV
attr interpolationmode none
attr recordingmode vector
attr title resources
vector 5 randkMM1.mm1[0] queueLength:vector ETV
attr interpolationmode none
attr recordingmode vector
attr title "queue length"
vector 6 randkMM1.mm1[1] queueLength:vector ETV
attr interpolationmode none
attr recordingmode vector
attr title "queue length"
vector 7 randkMM1.mm1[2] queueLength:vector ETV
attr interpolationmode none
attr recordingmode vector
attr title "queue length"
vector 8 randkMM1.mm1[4] queueLength:vector ETV
attr interpolationmode none
attr recordingmode vector
attr title "queue length"
vector 9 randkMM1.mm1[3] queueLength:vector ETV
attr interpolationmode none
attr recordingmode vector
attr title "queue length"
0	6	11	1
0	18	14.679106855402	1
0	39	19.040046162088	1
0	51	20.199787520606	1
0	129	28.530001240657	1
0	147	30.436737834745	1
0	171	36.576479475669	1
0	174	37.576479475669	1
0	204	42.011274750114	1
0	286	52.477294745556	1
0	320	55.320303042339	1
0	336	56.759590135231	1
0	347	58.908009985061	1
0	369	60.867463362761	1
0	396	66.755200795474	1
0	407	67.755200795474	1
0	413	68.755200795474	1
0	421	69.755200795474	1
0	424	70.755200795474	1
0	437	71.755200795474	1
0	449	72.755200795474	1
0	509	81.818939572235	1
0	520	82.871870098875	1
0	534	85.315819984363	1
0	550	86.746140048117	1
0	559	87.746140048117	1
0	590	93.690289045476	1
0	600	94.706760594085	1
0	643	101.690751536865	1
0	657	102.690751536865	1
0	666	103.690751536865	1
0	688	107.579541149608	1
0	704	109.489841267639	1
0	766	119.650554505023	1
0	777	121.101598668978	1
0	810	125.667465724133	1
0	832	129.202041553859	1
0	910	141.294438355255	1
0	927	142.435373197907	1
0	952	148.043719969996	1
0	1043	164.031421869567	1
0	1057	165.031421869567	1
0	1073	167.767909700736	1
0	1085	169.746457953109	1
0	1115	172.493764133407	1
0	1128	174.944180675995	1
0	1139	176.420084662419	1
0	1150	178.563813298488	1
0	1161	180.587991950116	1
0	1184	181.998616595625	1
0	1248	190.05817186404	1
0	1270	192.099607393087	1
0	1279	193.099607393087	1
0	1301	194.346802041557	1
0	1350	198.63902565575	1
0	1362	199.63902565575	1
0	1387	205.662035126033	1
0	1457	213.202505289902	1
0	1469	214.202505289902	1
0	1507	220.751908237078	1
0	1524	224.55686421127	1
0	1535	225.575031845725	1
0	1543	226.575031845725	1
0	1590	231.072319506732	1
0	1662	237.374537305555	1
0	1670	238.374537305555	1
0	1723	246.437434711434	1
0	1838	260.18702000444	1
0	1849	261.18702000444	1
0	1886	265.213119884916	1
0	1898	266.213119884916	1
0	1937	270.603302112963	1
0	1986	276.099848254207	1
0	2007	277.645802268854	1
0	2052	283.756382666644	1
0	2130	294.203275072885	1
0	2145	296.188867323416	1
0	2156	297.188867323416	1
0	2170	298.188867323416	1
0	2239	309.609207262115	1
0	2250	313.155732246519	1
0	2348	325.865654747743	1
0	2387	331.870440424566	1
0	2393	332.870440424566	1
0	2420	336.521061952813	1
0	2486	344.160570097061	1
0	2560	353.931562869528	1
0	2574	355.123115966874	1
0	2657	363.161635031776	1
0	2668	364.201031553635	1
0	2717	370.78771644011	1
0	2790	378.716211963722	1
0	2800	380.37106599254	1
0	2811	381.486304019655	1
0	2819	382.486304019655	1
0	2837	383.486304019655	1
0	2849	384.486304019655	1
0	2874	386.347854841593	1
0	2888	389.43526031765	1
0	2899	390.882037833315	1
0	2966	401.680474941891	1
0	2981	404.399622938816	1
0	2990	405.399622938816	1
0	2999	406.448752165851	1
0	3036	410.19623752416	1
0	3045	411.19623752416	1
0	3054	415.40877699827	1
0	3080	416.647739079569	1
0	3168	427.127703932839	1
0	3207	434.313894574381	1
0	3218	435.602499648154	1
0	3284	444.023828098847	1
0	3292	445.023828098847	1
0	3307	448.271278640815	1
0	3372	456.204043512037	1
0	3461	466.050685716161	1
0	3477	468.552627634346	1
0	3499	472.423172670759	1
0	3576	481.830423440725	1
0	3582	482.830423440725	1
0	3603	486.480282898623	1
0	3624	487.87723220439	1
0	3633	488.87723220439	1
0	3647	491.450673658408	1
0	3713	500.097035400351	1
0	3725	501.774881552698	1
0	3735	503.067337292534	1
0	3802	513.577060077976	1
0	3812	517.112693619011	1
0	3850	523.00617912061	1
0	3859	524.00617912061	1
0	3901	531.325429291608	1
0	3922	533.772022294753	1
0	3960	537.863581004539	1
0	3986	539.665853491676	1
0	4010	540.729883832821	1
0	4032	542.376381910321	1
0	4153	554.565713219362	1
0	4296	576.701947408943	1
0	4340	582.807647067103	1
0	4352	585.643483338801	1
0	4395	590.098943378452	1
0	4416	591.137585970599	1
0	4436	592.137585970599	1
0	4447	593.137585970599	1
0	4453	594.137585970599	1
0	4522	604.493910633639	1
0	4598	613.072049340944	1
0	4614	614.072049340944	1
0	4631	615.072049340944	1
0	4648	617.006638988399	1
0	4678	622.170845618721	1
0	4708	624.502427531215	1
0	4722	625.851526203093	1
0	4747	628.168395610027	1
0	4764	629.225768953499	1
0	4772	630.225768953499	1
0	4803	635.220808310086	1
0	4827	636.65766497394	1
0	4859	639.012618659311	1
0	4895	642.204823444424	1
0	4925	643.282716736537	1
0	4939	644.282716736537	1
0	4948	645.282716736537	1
0	4978	648.120119845824	1
0	4994	649.914788628988	1
0	5044	655.95002025418	1
0	5047	656.95002025418	1
0	5074	662.438011742791	1
0	5208	676.573256053551	1
0	5220	677.573256053551	1
0	5236	678.58371227972	1
0	5253	679.586077893911	1
0	5261	680.586077893911	1
0	5314	689.16231018073	1
0	5383	699.016233992449	1
0	5452	709.019208852798	1
0	5462	710.14403616166	1
0	5511	717.60676018702	1
0	5561	724.49930175868	1
0	5582	725.519576427444	1
0	5591	726.519576427444	1
0	5597	727.519576427444	1
0	5606	729.036817755878	1
0	5616	730.037268127748	1
0	5650	736.429448468222	1
0	5699	741.734565247608	1
0	5721	743.758493035447	1
0	5729	744.758493035447	1
0	5753	748.628475854859	1
0	5762	749.628475854859	1
0	5791	753.235565049979	1
0	5823	754.235565049979	1
0	5835	755.235565049979	1
0	5896	761.579034184847	1
0	5905	762.579034184847	1
0	6013	780.462815531204	1
0	6023	781.89958986846	1
0	6045	783.047553697433	1
0	6075	784.604990747755	1
0	6097	785.890938321727	1
0	6186	795.527406179822	1
0	6306	814.458985746027	1
0	6331	819.555892862836	1
0	6347	823.130753419514	1
0	6364	827.248974241033	1
0	6398	833.065807078594	1
0	6420	837.428984771981	1
0	6516	846.081135209018	1
0	6540	849.205394084678	1
0	6622	859.322337834543	1
0	6641	860.684089145781	1
0	6672	863.991281472207	1
0	6688	865.361681790977	1
0	6697	866.361681790977	1
0	6711	867.402611110447	1
0	6749	873.185377620928	1
0	6761	875.961459824215	1
0	6771	878.169818510539	1
0	6783	879.288374328789	1
0	6793	881.037009173897	1
0	6796	882.037009173897	1
0	6829	885.929343145222	1
0	6875	889.712313825399	1
0	6889	890.712313825399	1
0	6986	901.877191156261	1
0	7002	905.05021823695	1
0	7019	907.174264499704	1
0	7037	908.174264499704	1
0	7054	909.174264499704	1
0	7145	919.421925529882	1
0	7179	923.15482287661	1
0	7200	928.628359860911	1
0	7211	930.444838656905	1
0	7311	948.99063293883	1
0	7332	953.23567328892	1
0	7359	959.956437353621	1
0	7365	960.956437353621	1
0	7398	966.057995988984	1
0	7441	970.059900960493	1
0	7460	971.059900960493	1
0	7477	972.059900960493	1
0	7483	973.059900960493	1
0	7521	976.433763777518	1
0	7541	977.694535886294	1
0	7574	981.211654220677	1
0	7590	982.211654220677	1
0	7601	983.211654220677	1
0	7619	984.967142088477	1
0	7641	986.26622225061	1
0	7667	989.535507235199	1
0	7676	990.535507235199	1
0	7696	993.230741776407	1
0	7711	994.485361096226	1
0	7720	995.485361096226	1
0	7751	1002.032496334945	1
0	7777	1004.233680013096	1
0	7796	1005.233680013096	1
0	7823	1006.233680013096	1
0	7840	1007.233680013096	1
0	7849	1008.233680013096	1
0	7905	1015.70645935828	1
0	7959	1025.730283391788	1
0	7967	1026.730283391788	1
0	8019	1034.769099119793	1
0	8048	1040.152703714049	1
0	8058	1041.468193502307	1
0	8061	1042.468193502307	1
0	8097	1048.804506288334	1
0	8124	1052.3630154356	1
0	8135	1055.055047535578	1
0	8162	1058.347537080169	1
0	8181	1059.671969150934	1
0	8213	1063.209539593072	1
0	8229	1068.421657377482	1
0	8239	1069.421657377482	1
0	8255	1070.421657377482	1
0	8275	1071.421657377482	1
0	8281	1072.421657377482	1
0	8308	1074.78888663977	1
0	8327	1076.402485619794	1
0	8336	1077.402485619794	1
0	8350	1079.562914194489	1
0	8366	1081.412757939353	1
0	8369	1082.412757939353	1
0	8388	1085.671424428517	1
0	8396	1086.671424428517	1
0	8402	1087.671424428517	1
0	8415	1089.141605393914	1
0	8470	1093.451208205564	1
0	8479	1094.451208205564	1
0	8498	1096.909990723913	1
0	8531	1102.040181608909	1
0	8550	1103.779704045541	1
0	8565	1105.172882645678	1
0	8597	1109.614885398453	1
0	8619	1112.361650275457	1
0	8641	1117.619490013483	1
0	8674	1122.657504471938	1
0	8687	1123.657504471938	1
0	8701	1124.657504471938	1
0	8715	1125.657504471938	1
0	8730	1127.398748283299	1
0	8751	1134.372689965921	1
0	8762	1136.173816653474	1
0	8779	1137.963409147864	1
0	8807	1139.5588141656	1
0	8872	1146.031169140819	1
0	8938	1154.826700249879	1
0	8962	1160.52081504529	1
0	8982	1162.608376252875	1
0	9004	1166.369044174009	1
0	9015	1167.465061284098	1
0	9037	1174.792321796333	1
0	9049	1176.031403306046	1
0	9059	1178.645335673925	1
0	9071	1179.885992108108	1
0	9098	1183.013762833678	1
0	9115	1186.742101650959	1
0	9136	1190.55153526527	1
0	9148	1191.791815235887	1
0	9179	1196.58710980088	1
0	9191	1197.58710980088	1
0	9204	1198.58710980088	1
0	9257	1203.317841528691	1
0	9268	1205.945039092313	1
0	9296	1210.569827519007	1
0	9345	1218.701514093043	1
0	9366	1222.163118359095	1
0	9375	1223.163118359095	1
0	9381	1224.163118359095	1
0	9422	1230.466354078839	1
0	9445	1234.310091404292	1
0	9456	1236.894906310699	1
0	9467	1238.750410759212	1
0	9499	1242.18778136687	1
0	9549	1245.445087513447	1
0	9576	1251.354538826667	1
0	9584	1252.354538826667	1
0	9598	1254.269460020338	1
0	9620	1256.147870748542	1
0	9636	1257.156099444451	1
0	9774	1270.792498785221	1
0	9786	1272.201298346315	1
0	9851	1280.724200385352	1
0	9879	1286.196912831967	1
0	9895	1287.306654502952	1
0	9915	1289.933980379812	1
0	9972	1300.144000864645	1
0	10000	1304.430975920092	1
0	10038	1309.459715058272	1
0	10061	1312.952259665177	1
0	10136	1323.009449190577	1
0	10145	1324.009449190577	1
0	10158	1325.009449190577	1
0	10170	1326.009449190577	1
0	10197	1327.583389790358	1
0	10211	1328.583389790358	1
0	10225	1331.697020204375	1
0	10236	1333.874372407332	1
0	10247	1335.522844018294	1
0	10298	1337.998207597375	1
0	10315	1338.998207597375	1
0	10326	1339.998207597375	1
0	10341	1341.417808281819	1
0	10358	1343.761842098784	1
0	10374	1345.436547966881	1
0	10456	1355.185740640829	1
0	10490	1358.806338850086	1
0	10512	1362.846825656177	1
0	10534	1367.461211574883	1
0	10544	1369.880281924898	1
0	10566	1372.964155791561	1
0	10600	1375.547423945546	1
0	10611	1376.867809029398	1
0	10670	1384.309934142995	1
0	10687	1387.543837661108	1
0	10721	1391.113565409917	1
0	10764	1397.058328077524	1
0	10775	1399.186306767037	1
0	10835	1407.389372390921	1
0	10844	1408.389372390921	1
0	10863	1410.136783192687	1
0	10880	1411.136783192687	1
0	10907	1417.350829050635	1
0	10915	1418.350829050635	1
0	10928	1419.350829050635	1
0	10937	1420.350829050635	1
0	10945	1421.350829050635	1
0	10954	1422.350829050635	1
0	10963	1423.376274055991	1
0	10983	1425.748718274072	1
0	10989	1426.748718274072	1
0	10995	1427.748718274072	1
0	11040	1433.989920921908	1
0	11051	1434.992374150132	1
0	11062	1436.828959693018	1
0	11096	1438.732804802938	1
0	11132	1442.776678015876	1
0	11146	1443.776678015876	1
0	11194	1448.778169123258	1
0	11221	1453.216178551381	1
0	11237	1454.304284370414	1
0	11293	1465.244537648553	1
0	11315	1470.023281442119	1
0	11333	1471.784161205193	1
0	11363	1472.892498999868	1
0	11379	1473.892498999868	1
0	11388	1474.892498999868	1
0	11394	1475.892498999868	1
0	11415	1479.665112273139	1
0	11427	1480.665112273139	1
0	11441	1482.945540437033	1
0	11449	1483.945540437033	1
0	11479	1489.570738772212	1
0	11529	1494.574748050402	1
0	11537	1495.574748050402	1
0	11591	1500.682382543525	1
0	11623	1503.610985516186	1
0	11638	1506.501753934222	1
0	11656	1509.267937916928	1
0	11666	1510.411787554156	1
0	11694	1512.975021960797	1
0	11733	1519.091758652208	1
0	11755	1523.450541110634	1
0	11843	1536.140687359407	1
0	11859	1537.612219357219	1
0	11867	1538.612219357219	1
0	11875	1540.49112785443	1
0	11898	1544.06983566999	1
0	11908	1545.195473139125	1
0	11930	1548.816750632277	1
0	11967	1554.818349962854	1
0	11979	1555.818349962854	1
0	11988	1556.818349962854	1
0	12008	1560.79395570624	1
0	12048	1567.775243363602	1
0	12095	1572.872458198454	1
0	12116	1574.787682124007	1
0	12133	1575.787682124007	1
0	12161	1578.282293208088	1
0	12173	1579.282293208088	1
0	12183	1581.741511757558	1
0	12199	1584.522680778868	1
0	12208	1585.522680778868	1
0	12282	1595.757493214543	1
0	12304	1598.232760431069	1
0	12326	1601.397553708904	1
0	12354	1604.877619536402	1
0	12385	1606.389230192387	1
0	12394	1607.389230192387	1
0	12403	1608.389230192387	1
0	12422	1611.224543645577	1
0	12491	1618.684309845846	1
0	12510	1621.080246471136	1
0	12521	1622.080246471136	1
0	12580	1627.732156569679	1
0	12709	1643.827516172247	1
0	12723	1645.132429578662	1
0	12744	1647.756244593025	1
0	12777	1654.321072929848	1
0	12800	1658.479071705873	1
0	12810	1660.289529679646	1
0	12813	1661.289529679646	1
0	12821	1663.991633830033	1
0	12855	1668.653594433917	1
0	12892	1674.171990272153	1
0	12942	1681.711339485286	1
0	12994	1691.285617627662	1
0	13008	1692.480208098116	1
0	13011	1693.480208098116	1
0	13019	1695.178537160834	1
0	13041	1698.17722656429	1
0	13085	1704.774023885348	1
0	13101	1707.239845020309	1
0	13110	1708.239845020309	1
0	13134	1709.674159852312	1
0	13161	1711.132450555239	1
0	13195	1714.756070484121	1
0	13218	1721.776683387664	1
0	13255	1724.926946629469	1
0	13296	1729.153465968627	1
0	13344	1736.383855448742	1
0	13382	1741.034214427441	1
0	13399	1742.034214427441	1
0	13476	1752.952788995414	1
0	13514	1757.393342681072	1
0	13530	1759.692975823676	1
0	13541	1760.692975823676	1
0	13547	1761.692975823676	1
0	13555	1762.692975823676	1
0	13580	1764.049618560124	1
0	13596	1765.147563467902	1
0	13646	1771.988669522776	1
0	13712	1778.904839449093	1
0	13723	1780.491715088048	1
0	13746	1783.759869962935	1
0	13757	1785.376565376742	1
0	13800	1794.202664534708	1
0	13834	1800.254024209319	1
0	13850	1803.226775078265	1
0	13866	1804.9875563523	1
0	13869	1805.9875563523	1
0	13888	1813.02233435634	1
0	13891	1814.02233435634	1
0	13921	1819.793168648347	1
0	13977	1827.085214387828	1
0	13988	1828.968972888293	1
0	14064	1840.26924715795	1
0	14067	1841.26924715795	1
0	14075	1843.433226424197	1
0	14102	1850.096690847988	1
0	14173	1856.909504333659	1
0	14182	1857.909504333659	1
0	14220	1860.816388032614	1
0	14252	1865.112150737278	1
0	14262	1868.767595328808	1
0	14279	1873.010225684314	1
0	14312	1877.57814029965	1
0	14320	1878.57814029965	1
0	14339	1883.618708046103	1
0	14373	1889.775987637664	1
0	14384	1891.284182424991	1
0	14395	1893.658158326483	1
0	14432	1898.388439127358	1
0	14452	1899.418094918237	1
0	14463	1900.418094918237	1
0	14487	1903.686128962219	1
0	14504	1907.292957393685	1
0	14538	1913.620237079702	1
0	14549	1915.74789211043	1
0	14593	1922.926324819662	1
0	14648	1932.47839556615	1
0	14697	1936.461355960626	1
0	14710	1937.461355960626	1
0	14721	1938.461355960626	1
0	14757	1944.712777129844	1
0	14779	1947.019357751522	1
0	14829	1953.296263163065	1
0	14850	1955.864185224453	1
0	14873	1958.158478163331	1
0	14938	1964.405094236688	1
0	15032	1974.369936372477	1
0	15048	1975.369936372477	1
0	15062	1977.440253976239	1
0	15082	1978.531894189627	1
0	15114	1982.694820687091	1
0	15137	1985.003379747235	1
0	15153	1987.959392956709	1
0	15165	1989.665284149458	1
0	15202	1993.196025260463	1
0	15225	1995.871279381733	1
0	15274	2000.562428588626	1
0	15334	2012.481614960361	1
0	15353	2013.481614960361	1
0	15365	2014.481614960361	1
0	15440	2026.03324602374	1
0	15450	2028.031969184803	1
0	15472	2030.562331577189	1
0	15513	2035.779993107708	1
0	15527	2039.989230505344	1
0	15539	2043.099191123755	1
0	15554	2044.612592206275	1
0	15598	2050.483312953218	1
0	15626	2054.580417618025	1
0	15653	2061.705175650636	1
0	15681	2064.64580579889	1
0	15714	2069.623849334926	1
0	15725	2072.223605100547	1
0	15733	2073.223605100547	1
0	15769	2076.105782181572	1
0	15781	2077.105782181572	1
0	15792	2078.153024055548	1
0	15856	2088.295417993974	1
0	15865	2089.295417993974	1
0	15876	2090.295417993974	1
0	15919	2095.52243226728	1
0	15983	2101.383734081245	1
0	16002	2102.383734081245	1
0	16011	2103.383734081245	1
0	16052	2109.697786316357	1
0	16067	2113.719501141136	1
0	16132	2121.240510884373	1
0	16188	2129.199067803876	1
0	16319	2143.549322077984	1
0	16352	2150.402223234968	1
0	16445	2161.909445226809	1
0	16473	2163.85523260023	1
0	16482	2164.85523260023	1
0	16492	2165.85523260023	1
0	16506	2166.967036696012	1
0	16519	2167.967036696012	1
0	16533	2168.967036696012	1
0	16555	2170.21648554594	1
0	16564	2171.21648554594	1
0	16605	2177.180806927045	1
0	16617	2178.422522641844	1
0	16646	2180.568951777484	1
0	16693	2188.610196542737	1
0	16748	2193.339810675233	1
0	16853	2208.332601096575	1
0	16892	2214.841000355259	1
0	16924	2218.646533686876	1
0	16984	2222.966437127008	1
0	17025	2226.273787420867	1
0	17042	2227.273787420867	1
0	17048	2228.273787420867	1
0	17083	2235.470217033411	1
0	17097	2236.470217033411	1
0	17172	2243.905436243863	1
0	17193	2245.696286671664	1
0	17221	2250.026246588164	1
0	17232	2251.940132041032	1
0	17235	2252.940132041032	1
0	17255	2255.439153958607	1
0	17276	2260.344283625023	1
0	17279	2261.344283625023	1
0	17287	2263.437644689532	1
0	17353	2276.001601603822	1
0	17375	2277.886983195695	1
0	17407	2281.823354005888	1
0	17419	2282.823354005888	1
0	17422	2283.823354005888	1
0	17438	2285.209966045384	1
0	17449	2286.209966045384	1
0	17460	2287.209966045384	1
0	17479	2288.808022798962	1
0	17501	2290.509871580925	1
0	17524	2293.710439432066	1
0	17567	2298.146654773682	1
0	17651	2311.56691349698	1
0	17716	2320.597568099681	1
0	17719	2321.597568099681	1
0	17755	2325.071530985931	1
0	17768	2326.52410773977	1
0	17798	2327.938244890147	1
0	17826	2334.095471004592	1
0	17853	2336.444376374901	1
0	17878	2338.043617568231	1
0	17884	2339.043617568231	1
0	17925	2342.064602724736	1
0	17960	2343.325499083135	1
0	17979	2344.325499083135	1
0	18074	2356.780012629776	1
0	18102	2360.830423887377	1
0	18152	2366.632427343937	1
0	18172	2367.632427343937	1
0	18190	2370.500868117239	1
0	18228	2373.446966387367	1
0	18234	2374.446966387367	1
0	18299	2385.690109407719	1
0	18302	2386.690109407719	1
0	18326	2389.420387570889	1
0	18343	2393.63582065347	1
0	18365	2399.725408286985	1
0	18406	2404.583385132116	1
0	18425	2406.485377189838	1
0	18458	2411.494286593923	1
0	18475	2415.452340941721	1
0	18499	2418.982074456519	1
0	18530	2421.046541129032	1
0	18591	2428.672412048892	1
0	18612	2430.09126940058	1
0	18618	2431.09126940058	1
0	18621	2432.09126940058	1
0	18645	2436.871235050006	1
0	18684	2441.049400794006	1
0	18701	2442.37270577667	1
0	18729	2445.96364385137	1
0	18783	2451.710991176615	1
0	18827	2455.633553475463	1
0	18925	2462.832776464965	1
0	18992	2473.15399871269	1
0	19025	2476.000136400842	1
0	19050	2477.968455487536	1
0	19069	2479.603949302342	1
0	19097	2483.391844708996	1
0	19103	2484.391844708996	1
0	19129	2488.020826944116	1
0	19232	2498.786146118632	1
0	19246	2500.996779176874	1
0	19268	2503.013495977851	1
0	19279	2504.233648063424	1
0	19290	2507.235161595063	1
0	19338	2514.418632446601	1
0	19347	2515.418632446601	1
0	19356	2517.866725870127	1
0	19454	2535.688983542203	1
0	19465	2536.766333917848	1
0	19482	2540.62118098327	1
0	19488	2541.62118098327	1
0	19498	2543.59018478584	1
0	19510	2544.692558408365	1
0	19530	2546.734056973838	1
0	19549	2547.734056973838	1
0	19563	2548.734056973838	1
0	19587	2549.734056973838	1
0	19602	2550.734056973838	1
0	19679	2556.535112377415	1
0	19696	2559.730036940508	1
0	19746	2568.145392432176	1
0	19762	2570.279864268395	1
0	19770	2571.279864268395	1
0	19776	2572.279864268395	1
0	19790	2574.800660488744	1
0	19822	2577.645209195835	1
0	19828	2578.645209195835	1
0	19847	2580.121290706643	1
0	19873	2584.252249408617	1
0	19911	2588.613682921746	1
0	19976	2593.810644925245	1
0	20027	2600.312758031303	1
0	20038	2601.643260682109	1
0	20070	2606.812445987898	1
0	20081	2607.812445987898	1
0	20089	2608.812445987898	1
0	20095	2609.812445987898	1
0	20103	2611.429872653554	1
0	20111	2612.429872653554	1
0	20153	2617.162421194239	1
0	20159	2618.162421194239	1
0	20180	2623.009865064739	1
0	20280	2637.244830974892	1
0	20291	2639.349267923859	1
0	20301	2642.109466214221	1
0	20339	2646.100739523109	1
0	20348	2647.100739523109	1
0	20356	2648.563777866843	1
0	20372	2649.767031809345	1
0	20383	2650.767031809345	1
0	20402	2651.767031809345	1
0	20438	2655.678010746272	1
0	20447	2656.678010746272	1
0	20456	2658.654915049111	1
0	20493	2661.742475727383	1
0	20515	2665.100671260026	1
0	20533	2667.359149756333	1
0	20565	2670.925531627555	1
0	20573	2671.925531627555	1
0	20579	2672.925531627555	1
0	20587	2675.95730577586	1
0	20598	2679.826834367938	1
0	20614	2681.578429003597	1
0	20656	2684.274462561613	1
0	20669	2685.274462561613	1
0	20675	2686.274462561613	1
0	20688	2687.274462561613	1
0	20720	2692.051836460494	1
0	20790	2709.12734987799	1
0	20841	2716.698719016265	1
0	20862	2721.13817661304	1
0	20870	2722.13817661304	1
0	20983	2730.268581390464	1
0	21011	2732.403664958825	1
0	21021	2733.403664958825	1
0	21032	2734.403664958825	1
0	21038	2735.403664958825	1
0	21050	2737.012243710685	1
0	21077	2741.351543757791	1
0	21085	2742.351543757791	1
0	21164	2750.398660337885	1
0	21219	2755.285389297697	1
0	21236	2756.493287743378	1
0	21244	2757.493287743378	1
0	21260	2758.493287743378	1
0	21318	2762.576794274429	1
0	21333	2763.576794274429	1
0	21346	2764.714707693135	1
0	21423	2773.031040346778	1
0	21434	2774.14745289373	1
0	21478	2781.433896703242	1
0	21525	2785.783563164949	1
0	21541	2786.783563164949	1
0	21610	2797.852946479925	1
0	21621	2800.426925837225	1
0	21634	2801.426925837225	1
0	21648	2802.426925837225	1
0	21657	2803.426925837225	1
0	21671	2805.300046105213	1
0	21698	2808.215451317222	1
0	21725	2813.12151631436	1
0	21759	2816.804008778391	1
0	21820	2825.25002167426	1
0	21857	2830.170449863968	1
0	21871	2831.170449863968	1
0	21949	2839.826358735786	1
0	22094	2856.680671206603	1
0	22127	2861.008719190808	1
0	22165	2864.166825980144	1
0	22183	2866.343053886331	1
0	22193	2867.577977344643	1
0	22215	2871.17900382737	1
0	22218	2872.17900382737	1
0	22226	2874.380401766313	1
0	22281	2880.063441627739	1
0	22303	2882.779975014407	1
0	22316	2883.779975014407	1
0	22346	2885.508328670674	1
0	22402	2894.040376042499	1
0	22422	2896.812454744385	1
0	22435	2898.788816542232	1
0	22451	2900.555058788658	1
0	22517	2908.568765196218	1
0	22556	2912.54959581946	1
0	22564	2913.54959581946	1
0	22575	2914.54959581946	1
0	22627	2919.035910625709	1
0	22704	2927.774938732967	1
0	22710	2928.774938732967	1
0	22721	2931.443003871433	1
0	22798	2942.44433109248	1
0	22876	2950.770981171582	1
0	22886	2951.799500707027	1
0	22889	2952.799500707027	1
0	22897	2954.790095041911	1
0	22930	2957.636833644494	1
0	22961	2960.71657753263	1
0	22986	2962.812492014709	1
0	23002	2963.83740543266	1
0	23036	2965.430314418728	1
0	23053	2966.430314418728	1
0	23059	2967.430314418728	1
0	23070	2968.430314418728	1
0	23081	2969.430314418728	1
0	23139	2977.74193298925	1
0	23162	2980.634676710552	1
0	23216	2990.464632812965	1
0	23239	2994.418273876583	1
0	23249	2998.169795421769	1
0	23252	2999.169795421769	1
0	23316	3009.076443552505	1
0	23327	3012.366421868999	1
0	23403	3023.979552470737	1
0	23414	3024.979552470737	1
0	23447	3031.03059881674	1
0	23514	3041.4458703706	1
0	23535	3044.590926534312	1
0	23543	3045.590926534312	1
0	23549	3046.590926534312	1
0	23566	3049.294839548082	1
0	23579	3052.32591181296	1
0	23639	3058.879828494604	1
0	23653	3059.879828494604	1
0	23733	3072.502753867269	1
0	23766	3077.135815429321	1
0	23778	3078.182302119166	1
0	23804	3082.183607768867	1
0	23867	3088.560778759946	1
0	23891	3089.560778759946	1
0	23919	3091.592132259099	1
0	23969	3098.977736873303	1
0	23996	3101.907728626811	1
0	24010	3102.907728626811	1
0	24021	3103.907728626811	1
0	24038	3104.907728626811	1
0	24049	3105.907728626811	1
0	24060	3106.907728626811	1
0	24075	3109.303673643619	1
0	24096	3112.356771683131	1
0	24127	3115.518369144155	1
0	24141	3117.0551259653	1
0	24162	3121.816247791225	1
0	24184	3123.754338151665	1
0	24203	3124.754338151665	1
0	24233	3126.770713467487	1
0	24242	3127.770713467487	1
0	24256	3128.977585509929	1
0	24264	3129.977585509929	1
0	24283	3132.277813732645	1
0	24302	3133.858324283447	1
0	24313	3134.858324283447	1
0	24329	3135.858324283447	1
0	24368	3139.75853518818	1
0	24393	3141.86741493237	1
0	24396	3142.86741493237	1
0	24451	3148.193676287167	1
0	24475	3150.992926654066	1
0	24509	3155.546838902176	1
0	24525	3158.788723110621	1
0	24565	3161.105877021645	1
0	24610	3165.860936875607	1
0	24616	3166.860936875607	1
0	24625	3168.014251859659	1
0	24655	3169.794797890587	1
0	24674	3170.833630055532	1
0	24685	3171.833630055532	1
0	24693	3172.833630055532	1
0	24718	3177.109146325178	1
0	24731	3178.109146325178	1
0	24768	3183.059510710434	1
0	24778	3186.367890527486	1
0	24805	3191.102059556558	1
0	24811	3192.102059556558	1
0	24819	3193.102059556558	1
0	24844	3196.99674048103	1
0	24860	3198.760508780235	1
0	24871	3199.760508780235	1
0	24885	3200.760508780235	1
0	24896	3201.760508780235	1
0	24902	3202.760508780235	1
0	24921	3204.680411803841	1
0	24977	3213.026813277689	1
0	24997	3215.559952652344	1
0	25017	3217.67801651055	1
0	25051	3220.398122151267	1
0	25064	3225.724637446449	1
0	25072	3226.724637446449	1
0	25078	3227.724637446449	1
0	25120	3233.649378033131	1
0	25131	3235.520246318842	1
0	25141	3236.718126407022	1
0	25152	3239.989175777634	1
0	25169	3241.024561539424	1
0	25177	3242.024561539424	1
0	25201	3245.098483619542	1
0	25210	3246.098483619542	1
0	25218	3247.712984004179	1
0	25229	3249.192071715273	1
0	25241	3250.625871912914	1
0	25333	3259.80078755396	1
0	25378	3264.111948860001	1
0	25421	3268.737461393698	1
0	25443	3269.965427739693	1
0	25493	3275.493554165222	1
0	25505	3276.724245511503	1
0	25536	3278.605255999218	1
0	25545	3279.605255999218	1
0	25620	3287.343929724412	1
0	25636	3288.343929724412	1
0	25674	3292.249902540137	1
0	25685	3293.249902540137	1
0	25699	3294.249902540137	1
0	25710	3295.249902540137	1
0	25751	3300.853395244207	1
0	25762	3301.853395244207	1
0	25781	3302.853395244207	1
0	25790	3303.853395244207	1
0	25793	3304.853395244207	1
0	25817	3309.116137832703	1
0	25826	3310.116137832703	1
0	25839	3312.288515558914	1
0	25848	3313.288515558914	1
0	25888	3318.050169422398	1
0	25902	3319.050169422398	1
0	25933	3321.96973271739	1
0	25956	3325.559614578132	1
0	25978	3330.724466430193	1
0	25988	3332.458734938291	1
0	26033	3336.332078331664	1
0	26075	3338.756737887784	1
0	26084	3339.756737887784	1
0	26103	3341.214615085739	1
0	26158	3353.010608619835	1
0	26257	3367.518098966691	1
0	26362	3385.372794909233	1
0	26365	3386.372794909233	1
0	26395	3390.801110614187	1
0	26407	3391.801110614187	1
0	26428	3395.09045517605	1
0	26450	3398.779562821133	1
0	26453	3399.779562821133	1
0	26472	3400.859296473878	1
0	26517	3406.46594927686	1
0	26572	3416.446858014488	1
0	26587	3419.950746747821	1
0	26625	3424.848920447795	1
0	26637	3425.848920447795	1
0	26659	3429.650887685135	1
0	26720	3441.67489683092	1
0	26792	3451.240988740362	1
0	26824	3456.951118118622	1
0	26851	3459.304178880628	1
0	26929	3468.102005628691	1
0	26978	3474.259828195909	1
0	26995	3476.029152963417	1
0	27011	3477.029152963417	1
0	27022	3478.029152963417	1
0	27030	3479.029152963417	1
0	27115	3489.307490725346	1
0	27143	3492.550417996754	1
0	27176	3495.55697387179	1
0	27179	3496.55697387179	1
0	27203	3498.344965192316	1
0	27265	3503.898428531644	1
0	27283	3505.34423354557	1
0	27319	3511.971756821337	1
0	27330	3512.986371937661	1
0	27352	3516.442225439169	1
0	27369	3518.149613876699	1
0	27426	3527.42517305017	1
0	27454	3529.490215900296	1
0	27470	3530.490215900296	1
0	27591	3540.382708381362	1
0	27608	3541.382708381362	1
0	27643	3544.817730700944	1
0	27657	3545.817730700944	1
0	27668	3546.817730700944	1
0	27698	3549.67631758168	1
0	27720	3551.592819663205	1
0	27744	3552.657169143167	1
0	27761	3553.657169143167	1
0	27782	3556.971958994546	1
0	27792	3558.45943539249	1
0	27811	3559.816568349137	1
0	27830	3562.087614472613	1
0	27916	3571.797954728541	1
0	28011	3581.292426896213	1
0	28028	3582.292426896213	1
0	28034	3583.292426896213	1
0	28077	3587.898498403302	1
0	28102	3589.740549356655	1
0	28123	3592.08171103471	1
0	28182	3597.804838525149	1
0	28199	3600.32923493157	1
1	7	11	1
1	28	16.060651843774	1
1	50	20.199787520606	1
1	73	21.800827781657	1
1	146	30.436737834745	1