version 3
run k_MM1_rand-5-20221127-16:03:21-5740
attr configname k_MM1_rand
attr datetime 20221127-16:03:21
attr datetimef 20221127-160321
attr experiment k_MM1_rand
attr inifile omnetpp.ini
attr iterationvars "$time=1.0, $num=5, $0=45732, $1=35463, $2=67563"
attr iterationvarsd time=1.0/num=5/45732/35463/67563
attr iterationvarsf time=1.0,num=5,45732,35463,67563-
attr measurement "$time=1.0, $num=5, $0=45732, $1=35463, $2=67563"
attr network randkMM1
attr processid 5740
attr repetition 1
attr replication #1
attr resultdir results
attr runnumber 5
attr seedset 5
itervar num 5
itervar time 1.0
config description "MM1 module k-times random"
config network randkMM1
config **.source.interArrivalTime "truncnormal(0.5s, 1.5s)"
config **.serviceTime 1.0s
config **.c 5
config **.capacity 10000
config record-eventlog false
config **.scalar-recording true
config **.vector-recording true
config repeat 4
config seed-1-mt 45732
config seed-2-mt 35463
config seed-3-mt 67563
config output-vector-file k_MM1_rand-5-1.0-results/1.vec
config output-scalar-file k_MM1_rand-5-1.0-results/1.sca

vector 0 randkMM1.mm1[1] util:vector ETV
attr interpolationmode none
attr recordingmode vector
attr title resources
vector 1 randkMM1.mm1[0] util:vector ETV
attr interpolationmode none
attr recordingmode vector
attr title resources
vector 2 randkMM1.mm1[2] util:vector ETV
attr interpolationmode none
attr recordingmode vector
attr title resources
vector 3 randkMM1.mm1[4] util:vector ETV
attr interpolationmode none
attr recordingmode vector
attr title resources
vector 4 randkMM1.mm1[3] util:vector ETV
attr interpolationmode none
attr recordingmode vector
attr title resources
vector 5 randkMM1.mm1[1] queueLength:vector ETV
attr interpolationmode none
attr recordingmode vector
attr title "queue length"
vector 6 randkMM1.mm1[4] queueLength:vector ETV
attr interpolationmode none
attr recordingmode vector
attr title "queue length"
vector 7 randkMM1.mm1[2] queueLength:vector ETV
attr interpolationmode none
attr recordingmode vector
attr title "queue length"
vector 8 randkMM1.mm1[3] queueLength:vector ETV
attr interpolationmode none
attr recordingmode vector
attr title "queue length"
vector 9 randkMM1.mm1[0] queueLength:vector ETV
attr interpolationmode none
attr recordingmode vector
attr title "queue length"
0	6	11	1
0	72	22.039334323948	1
0	84	23.039334323948	1
0	133	28.584609638213	1
0	138	29.584609638213	1
0	146	30.584609638213	1
0	168	32.736688336223	1
0	248	44.367192388215	1
0	266	45.367192388215	1
0	278	46.367192388215	1
0	294	47.367192388215	1
0	308	48.367192388215	1
0	374	58.79962047216	1
0	403	64.771979531231	1
0	429	67.884971343754	1
0	502	76.316831599585	1
0	578	84.374780883877	1
0	586	85.374780883877	1
0	597	86.374780883877	1
0	622	90.62415873841	1
0	644	96.396385130277	1
0	699	108.809466444981	1
0	712	109.809466444981	1
0	721	110.809466444981	1
0	743	113.272277481086	1
0	755	114.538658861444	1
0	814	120.383938185634	1
0	828	121.383938185634	1
0	839	122.383938185634	1
0	872	127.180444568758	1
0	903	130.985675127564	1
0	911	131.985675127564	1
0	925	133.701482276553	1
0	930	134.701482276553	1
0	938	135.701482276553	1
0	963	142.744121500034	1
0	985	145.191942231721	1
0	1033	148.081275607861	1
0	1050	149.081275607861	1
0	1067	150.081275607861	1
0	1129	159.309507897853	1
0	1144	161.835412336451	1
0	1155	162.835412336451	1
0	1161	163.835412336451	1
0	1164	164.835412336451	1
0	1183	167.779267862375	1
0	1205	172.422853566886	1
0	1227	174.762575404014	1
0	1252	177.679369687159	1
0	1282	181.858262259722	1
0	1309	185.338157242549	1
0	1323	186.338157242549	1
0	1343	189.456823597651	1
0	1360	191.399639386407	1
0	1427	198.309527992097	1
0	1463	202.529046550481	1
0	1546	215.765063059864	1
0	1557	217.162164392992	1
0	1578	218.431563672744	1
0	1592	219.431563672744	1
0	1612	222.202329741445	1
0	1620	223.202329741445	1
0	1631	224.202329741445	1
0	1656	228.019460702407	1
0	1659	229.019460702407	1
0	1683	235.743672455665	1
0	1692	236.743672455665	1
0	1700	238.846907918323	1
0	1778	246.414740100862	1
0	1794	248.658759500197	1
0	1811	252.213307477386	1
0	1822	253.802320968328	1
0	1832	256.732237667143	1
0	1840	257.732237667143	1
0	1851	258.732237667143	1
0	1884	262.106868631965	1
0	1895	263.106868631965	1
0	1901	264.106868631965	1
0	1937	270.447000908265	1
0	1950	272.261410610542	1
0	2008	280.797071425191	1
0	2046	284.154883340499	1
0	2064	286.062980698405	1
0	2080	290.980585386579	1
0	2129	299.965416252662	1
0	2202	307.618010526402	1
0	2214	308.618010526402	1
0	2256	314.014654682778	1
0	2285	318.71095099965	1
0	2299	319.71095099965	1
0	2305	320.71095099965	1
0	2313	321.71095099965	1
0	2324	322.71095099965	1
0	2343	323.896960158462	1
0	2352	324.896960158462	1
0	2361	325.968884619585	1
0	2382	327.538149469872	1
0	2408	328.603887660188	1
0	2420	329.603887660188	1
0	2493	345.088597376339	1
0	2537	353.521394550076	1
0	2547	355.255143866963	1
0	2591	362.689716322218	1
0	2602	366.873732321134	1
0	2696	380.242941667409	1
0	2751	385.33166870133	1
0	2823	395.901476105575	1
0	2833	397.419811670891	1
0	2974	416.921995327475	1
0	2992	418.664986014724	1
0	3003	419.664986014724	1
0	3009	420.664986014724	1
0	3012	421.664986014724	1
0	3026	422.906547802375	1
0	3054	426.32522944643	1
0	3064	427.804252292016	1
0	3080	429.91263524754	1
0	3113	434.284686775006	1
0	3186	442.426258251869	1
0	3197	443.731096724454	1
0	3234	447.04736505349	1
0	3267	452.063830146313	1
0	3276	453.063830146313	1
0	3339	462.291241958238	1
0	3369	465.29750395634	1
0	3394	467.597616386757	1
0	3405	470.895170868315	1
0	3439	476.97268336995	1
0	3498	481.860116058709	1
0	3509	483.000939366993	1
0	3534	486.039716366392	1
0	3545	487.039716366392	1
0	3584	490.446598599166	1
0	3637	499.894409461126	1
0	3652	501.383090782079	1
0	3666	502.383090782079	1
0	3724	511.986439954134	1
0	3727	512.986439954134	1
0	3795	526.543563980623	1
0	3842	532.523498777001	1
0	3862	534.145138602559	1
0	3887	536.241866510174	1
0	3911	539.672991987234	1
0	3937	541.902708103083	1
0	3949	542.902708103083	1
0	3988	548.264332958765	1
0	4022	554.974709015773	1
0	4033	557.087248416106	1
0	4066	561.240424035755	1
0	4084	562.477781291878	1
0	4095	563.477781291878	1
0	4101	564.477781291878	1
0	4110	565.624278504711	1
0	4131	568.120394357429	1
0	4164	571.385361897883	1
0	4181	573.169115872331	1
0	4207	574.302189311273	1
0	4247	579.031452238327	1
0	4260	580.116085816561	1
0	4285	583.221684104516	1
0	4319	589.780524445717	1
0	4391	596.655335831484	1
0	4406	597.655335831484	1
0	4422	598.840316161262	1
0	4494	611.900330665383	1
0	4505	613.720051570857	1
0	4516	615.924751778428	1
0	4572	627.194559759172	1
0	4583	630.936841874803	1
0	4642	635.864133334086	1
0	4653	636.893158152706	1
0	4672	637.949357756636	1
0	4681	638.949357756636	1
0	4716	643.118206380345	1
0	4733	644.118206380345	1
0	4752	645.610129236147	1
0	4761	646.610129236147	1
0	4802	654.042343380146	1
0	4826	657.490467710488	1
0	4835	658.490467710488	1
0	4846	659.540987114642	1
0	4859	660.540987114642	1
0	4887	662.84603903394	1
0	4934	672.516448220894	1
0	5011	680.227768501931	1
0	5014	681.227768501931	1
0	5028	683.035950217826	1
0	5066	688.657541937379	1
0	5093	692.312542149168	1
0	5121	697.216837266856	1
0	5138	699.272005923965	1
0	5184	706.661024554741	1
0	5199	708.162425790092	1
0	5237	711.127246203665	1
0	5245	712.127246203665	1
0	5253	714.050937107985	1
0	5275	716.268599412325	1
0	5309	722.82859968606	1
0	5385	736.777994451559	1
0	5412	739.94924731284	1
0	5418	740.94924731284	1
0	5421	741.94924731284	1
0	5429	744.078605619344	1
0	5467	746.364028922659	1
0	5508	749.884717257414	1
0	5544	753.734137163318	1
0	5600	756.803570848196	1
0	5615	757.803570848196	1
0	5632	758.803570848196	1
0	5638	759.803570848196	1
0	5646	760.803570848196	1
0	5652	761.803570848196	1
0	5698	764.943037223054	1
0	5717	765.943037223054	1
0	5726	766.943037223054	1
0	5748	769.717627331107	1
0	5759	772.276411619376	1
0	5762	773.276411619376	1
0	5794	776.322469264454	1
0	5831	779.876821797206	1
0	5836	780.876821797206	1
0	5839	781.876821797206	1
0	5864	785.710658930868	1
0	5872	786.710658930868	1
0	5897	788.51536681752	1
0	5919	792.376656896401	1
0	5954	796.363876123323	1
0	5974	799.778710772591	1
0	5990	800.80716081713	1
0	6012	804.01993125929	1
0	6056	809.067835324378	1
0	6089	812.718195871639	1
0	6116	815.575398200038	1
0	6134	818.149618646526	1
0	6144	821.256136666627	1
0	6166	823.255866420703	1
0	6221	834.044204988677	1
0	6232	835.79746130572	1
0	6243	837.875727927002	1
0	6260	839.906201122967	1
0	6268	840.906201122967	1
0	6276	842.210703453538	1
0	6284	843.210703453538	1
0	6306	845.254954939014	1
0	6322	846.549424341037	1
0	6331	847.549424341037	1
0	6358	850.75932104229	1
0	6372	851.75932104229	1
0	6378	852.75932104229	1
0	6395	854.543571884603	1
0	6416	856.366924520882	1
0	6430	858.663934836233	1
0	6438	859.663934836233	1
0	6444	860.663934836233	1
0	6463	864.032077952865	1
0	6475	866.658763767744	1
0	6512	870.624387773067	1
0	6518	871.624387773067	1
0	6526	872.624387773067	1
0	6532	873.624387773067	1
0	6548	875.561180947393	1
0	6595	885.05901930008	1
0	6598	886.05901930008	1
0	6619	888.625397583942	1
0	6661	895.662930864196	1
0	6672	896.74306812373	1
0	6688	898.382190285997	1
0	6702	899.382190285997	1
0	6717	901.52683549478	1
0	6749	907.314066879093	1
0	6772	908.60380951288	1
0	6787	911.982274074112	1
0	6801	912.982274074112	1
0	6842	916.90979877145	1
0	6860	919.042496886626	1
0	6892	926.067604622768	1
0	6915	928.361611219264	1
0	6937	930.915498968775	1
0	6948	931.932196670996	1
0	6964	934.59577858322	1
0	6988	936.033978291877	1
0	7014	939.026953816123	1
0	7046	946.156580712983	1
0	7058	950.00280825392	1
0	7073	951.660451410821	1
0	7081	952.660451410821	1
0	7087	953.660451410821	1
0	7095	954.660451410821	1
0	7101	955.660451410821	1
0	7114	956.660451410821	1
0	7120	957.660451410821	1
0	7140	960.093963085534	1
0	7169	961.75216012574	1
0	7183	962.75216012574	1
0	7201	965.262096504236	1
0	7274	972.595196297735	1
0	7297	974.315712593418	1
0	7333	981.562134056929	1
0	7344	982.878301254119	1
0	7359	984.728183086363	1
0	7442	994.018262010513	1
0	7483	998.54181847798	1
0	7497	999.837231590433	1
0	7509	1001.969888976793	1
0	7519	1004.516903514651	1
0	7564	1009.548469219633	1
0	7598	1012.096392861977	1
0	7612	1013.096392861977	1
0	7675	1020.513178524561	1
0	7706	1026.24741366678	1
0	7709	1027.24741366678	1
0	7729	1031.968324443629	1
0	7750	1033.997474698517	1
0	7766	1035.840444828269	1
0	7789	1039.180352803916	1
0	7799	1040.180352803916	1
0	7810	1041.180352803916	1
0	7816	1042.180352803916	1
0	7839	1045.550711423057	1
0	7872	1050.657312404383	1
0	7905	1054.363505577604	1
0	7958	1060.232776175766	1
0	7969	1061.232776175766	1
0	7978	1062.232776175766	1
0	7994	1063.232776175766	1
0	8037	1067.815929843347	1
0	8058	1072.673356642703	1
0	8061	1073.673356642703	1
0	8069	1075.258992133429	1
0	8080	1077.716669576871	1
0	8124	1083.951689809046	1
0	8136	1085.616002832229	1
0	8191	1092.067393567229	1
0	8288	1103.563174792598	1
0	8300	1104.563174792598	1
0	8312	1106.477727526771	1
0	8344	1109.583384460131	1
0	8352	1110.583384460131	1
0	8360	1111.583384460131	1
0	8371	1112.583384460131	1
0	8400	1116.552842926949	1
0	8444	1121.886575952919	1
0	8476	1125.868212392868	1
0	8485	1126.868212392868	1
0	8495	1127.868212392868	1
0	8520	1131.148095806192	1
0	8531	1134.554189752784	1
0	8542	1135.973645030003	1
0	8564	1139.047305002658	1
0	8603	1144.620852081918	1
0	8619	1147.595480091048	1
0	8622	1148.595480091048	1
0	8630	1150.046629263426	1
0	8652	1156.132078681875	1
0	8663	1159.833614337298	1
0	8674	1164.203964167023	1
0	8696	1165.706658787031	1
0	8708	1167.028725405812	1
0	8740	1171.333592068947	1
0	8762	1177.668827724639	1
0	8774	1179.526382434027	1
0	8849	1191.615089575081	1
0	8894	1195.773728586908	1
0	8906	1197.044629143395	1
0	8960	1206.532740262868	1
0	8988	1213.013497955996	1
0	9026	1217.118981188983	1
0	9071	1224.120089860502	1
0	9081	1225.731706666461	1
0	9129	1229.127462819266	1
0	9158	1233.458526703177	1
0	9185	1236.804805312344	1
0	9214	1240.16177023673	1
0	9234	1242.129209497732	1
0	9265	1243.949107065201	1
0	9351	1250.844911518415	1
0	9359	1251.844911518415	1
0	9377	1253.704495639807	1
0	9460	1263.521659280018	1
0	9493	1269.396914450603	1
0	9521	1271.971874541958	1
0	9524	1272.971874541958	1
0	9537	1275.831139061749	1
0	9548	1276.831139061749	1
0	9565	1279.403395027487	1
0	9593	1283.364697807112	1
0	9609	1285.219891094587	1
0	9654	1294.777228874886	1
0	9676	1298.57967869001	1
0	9775	1311.918557967441	1
0	9786	1313.545934630875	1
0	9900	1323.55224163916	1
0	9911	1324.55224163916	1
0	9996	1336.891004106901	1
0	10024	1338.757578345882	1
0	10048	1339.855171749656	1
0	10087	1345.416967985094	1
0	10104	1348.760320154453	1
0	10121	1350.398288781105	1
0	10134	1351.644563606379	1
0	10169	1355.04797507005	1
0	10222	1360.314217325661	1
0	10248	1364.69380483628	1
0	10313	1373.856838189755	1
0	10340	1377.563056875681	1
0	10380	1380.776305188683	1
0	10451	1388.248961990161	1
0	10467	1392.056537976278	1
0	10483	1393.273461230157	1
0	10492	1394.273461230157	1
0	10555	1404.249696575946	1
0	10619	1410.559226007875	1
0	10632	1411.768599381791	1
0	10665	1417.015118470189	1
0	10668	1418.015118470189	1
0	10720	1427.584813692939	1
0	10752	1430.998206086224	1
0	10776	1433.48255218994	1
0	10886	1450.33617637365	1
0	10953	1459.407621258269	1
0	10995	1468.821764137716	1
0	10998	1469.821764137716	1
0	11007	1471.357112118409	1
0	11017	1473.421184492651	1
0	11089	1484.852957378083	1
0	11121	1486.387441497568	1
0	11214	1495.090194068323	1
0	11231	1496.090194068323	1
0	11245	1497.090194068323	1
0	11270	1502.267246387676	1
0	11293	1504.824591664412	1
0	11320	1508.131634784717	1
0	11371	1513.807111159019	1
0	11382	1514.807111159019	1
0	11396	1515.807111159019	1
0	11429	1520.436586695323	1
0	11435	1521.436586695323	1
0	11458	1525.486875904337	1
0	11469	1529.357417407886	1
0	11490	1532.107470270971	1
0	11502	1533.722213930622	1
0	11556	1541.75823927998	1
0	11612	1548.685074673345	1
0	11727	1565.715960290134	1
0	11771	1572.452237241119	1
0	11809	1576.880688480721	1
0	11817	1577.880688480721	1
0	11832	1580.127779231847	1
0	11864	1584.383960107216	1
0	11886	1589.540990699668	1
0	11930	1595.712994553107	1
0	12008	1611.051141057582	1
0	12027	1613.212937738074	1
0	12045	1614.666302347154	1
0	12051	1615.666302347154	1
0	12064	1616.666302347154	1
0	12085	1619.439534952131	1
0	12106	1621.565605881166	1
0	12109	1622.565605881166	1
0	12122	1624.106042089308	1
0	12151	1627.896730793033	1
0	12172	1632.286726673501	1
0	12208	1635.569900352467	1
0	12266	1642.618473309967	1
0	12293	1644.337793217593	1
0	12304	1645.337793217593	1
0	12364	1653.999112907069	1
0	12385	1654.999112907069	1
0	12397	1655.999112907069	1
0	12431	1658.958002168919	1
0	12458	1662.478476607457	1
0	12466	1663.478476607457	1
0	12496	1666.555308036924	1
0	12537	1669.076091876835	1
0	12551	1670.076091876835	1
0	12565	1671.218199488029	1
0	12601	1675.692756296928	1
0	12628	1680.273779914781	1
0	12639	1681.273779914781	1
0	12648	1682.273779914781	1
0	12656	1685.87797033524	1
0	12695	1691.420587431893	1
0	12708	1692.420587431893	1
0	12733	1695.405772360894	1
0	12788	1706.17682166755	1
0	12821	1709.965220773939	1
0	12859	1716.891184509593	1
0	12870	1717.891184509593	1
0	12894	1718.891184509593	1
0	12916	1719.891184509593	1
0	12938	1720.891184509593	1
0	12947	1721.891184509593	1
0	12953	1722.891184509593	1
0	12980	1725.601665461633	1
0	13002	1727.930316284683	1
0	13011	1728.930316284683	1
0	13045	1732.7929170736	1
0	13073	1734.27503047955	1
0	13096	1738.22915670684	1
0	13104	1739.22915670684	1
0	13130	1742.219133239866	1
0	13184	1749.501421307133	1
0	13250	1757.528572929343	1
0	13261	1760.293329440256	1
0	13269	1761.293329440256	1
0	13315	1769.520124037074	1
0	13332	1770.888633396499	1
0	13412	1778.054481321946	1
0	13439	1779.098589968408	1
0	13459	1782.247108495486	1
0	13467	1783.247108495486	1
0	13479	1784.418672130103	1
0	13531	1791.470241071896	1
0	13548	1793.214389872974	1
0	13596	1796.485452254474	1
0	13624	1800.388473785271	1
0	13640	1803.044167071883	1
0	13678	1805.972224189227	1
0	13731	1813.301934403798	1
0	13762	1816.519696563157	1
0	13800	1822.501288677791	1
0	13811	1824.020296613807	1
0	13834	1826.269383586485	1
0	13844	1827.786641319126	1
0	13860	1829.268533912092	1
0	13937	1835.186602963358	1
0	13948	1836.186602963358	1
0	13959	1837.186602963358	1
0	13987	1840.284125224817	1
0	13998	1842.542789305445	1
0	14053	1849.961391624554	1
0	14086	1855.212207521032	1
0	14121	1858.252114770077	1
0	14179	1862.406862191054	1
0	14188	1863.406862191054	1
0	14204	1864.668203657475	1
0	14229	1867.807767848698	1
0	14255	1869.106722063631	1
0	14270	1870.106722063631	1
0	14339	1884.025436922516	1
0	14350	1885.837489261688	1
0	14353	1886.837489261688	1
0	14373	1888.819516399471	1
0	14443	1904.627124362879	1
0	14460	1905.89588789439	1
0	14473	1906.89588789439	1
0	14515	1912.982803944989	1
0	14548	1917.479561207731	1
0	14551	1918.479561207731	1
0	14560	1921.443333422603	1
0	14656	1927.628849365497	1
0	14674	1928.75483097433	1
0	14685	1929.75483097433	1
0	14714	1933.63147132959	1
0	14725	1936.206052186905	1
0	14779	1944.497264862631	1
0	14782	1945.497264862631	1
0	14877	1956.257890734684	1
0	14883	1957.257890734684	1
0	14902	1958.987897144001	1
0	14911	1959.987897144001	1
0	14930	1961.594288506577	1
0	14950	1963.243473594965	1
0	14958	1964.243473594965	1
0	14966	1966.031716062718	1
0	15016	1972.112503593201	1
0	15026	1973.112503593201	1
0	15035	1974.112503593201	1
0	15069	1976.257909904702	1
0	15128	1980.279210211211	1
0	15144	1981.279210211211	1
0	15164	1983.009609775648	1
0	15172	1984.009609775648	1
0	15183	1985.009609775648	1
0	15194	1986.009609775648	1
0	15200	1987.009609775648	1
0	15219	1988.453717948482	1
0	15252	1992.427311295498	1
0	15275	1994.973668465486	1
0	15308	2002.004068103742	1
0	15324	2003.106038222343	1
0	15330	2004.106038222343	1
0	15363	2006.561442794197	1
0	15405	2011.615638354221	1
0	15417	2012.615638354221	1
0	15420	2013.615638354221	1
0	15445	2016.448206977498	1
0	15483	2022.476742555053	1
0	15554	2028.002009702314	1
0	15609	2033.764601862658	1
0	15632	2035.933937487802	1
0	15642	2036.933937487802	1
0	15656	2037.933937487802	1
0	15662	2038.933937487802	1
0	15719	2050.537216592798	1
0	15728	2051.537216592798	1
0	15867	2066.138653304917	1
0	15889	2067.344725683678	1
0	15903	2068.344725683678	1
0	15929	2072.077098564531	1
0	15963	2073.843732090356	1
0	15972	2074.843732090356	1
0	15987	2076.572689873109	1
0	16016	2079.653360540117	1
0	16044	2083.160920600609	1
0	16052	2084.160920600609	1
0	16082	2092.231777282555	1
0	16112	2094.585584588607	1
0	16123	2095.585584588607	1
0	16140	2096.742410536415	1
0	16198	2103.133277266487	1
0	16271	2108.62923432887	1
0	16285	2109.62923432887	1
0	16296	2110.62923432887	1
0	16308	2111.62923432887	1
0	16316	2112.62923432887	1
0	16424	2128.072983876224	1
0	16440	2130.112849592836	1
0	16452	2131.229579741825	1
0	16473	2134.46899597183	1
0	16500	2137.410671457895	1
0	16529	2138.410671457895	1
0	16538	2139.410671457895	1
0	16544	2140.410671457895	1
0	16574	2142.022456744843	1
0	16632	2147.872464071787	1
0	16657	2149.378932084238	1
0	16663	2150.378932084238	1
0	16781	2165.440360392783	1
0	16852	2171.353923859016	1
0	16936	2185.304289600308	1
0	16998	2193.882305218773	1
0	17024	2199.621083625172	1
0	17044	2201.366357090886	1
0	17061	2202.366357090886	1
0	17088	2204.08304851033	1
0	17112	2205.989798318899	1
0	17134	2208.26443516551	1
0	17152	2209.656814381348	1
0	17211	2218.339084065812	1
0	17274	2225.431992301363	1
0	17293	2227.863464780995	1
0	17301	2228.863464780995	1
0	17325	2234.516578045231	1
0	17331	2235.516578045231	1
0	17342	2237.432080194499	1
0	17345	2238.432080194499	1
0	17359	2240.98215967651	1
0	17375	2243.798646499778	1
0	17387	2245.065087600398	1
0	17452	2254.023266734888	1
0	17460	2255.023266734888	1
0	17466	2256.023266734888	1
0	17486	2257.352919989706	1
0	17515	2259.806716093851	1
0	17615	2272.142464103825	1
0	17667	2277.299942481352	1
0	17717	2283.862993552325	1
0	17809	2299.264034113439	1
0	17818	2300.264034113439	1
0	17842	2302.633967194648	1
0	17860	2306.084683552234	1
0	17903	2313.421344685227	1
0	17917	2314.421344685227	1
0	17955	2317.826977207098	1
0	18001	2322.597250423356	1
0	18013	2323.597250423356	1
0	18085	2331.874756303684	1
0	18093	2332.874756303684	1
0	18212	2349.028195456375	1
0	18232	2350.145831977012	1
0	18260	2351.816637996202	1
0	18285	2354.639955717899	1
0	18311	2357.883566245592	1
0	18332	2360.427959713055	1
0	18354	2362.127155210894	1
0	18417	2369.537099914779	1
0	18458	2375.881100204616	1
0	18475	2378.635656374798	1
0	18483	2379.635656374798	1
0	18516	2383.133846834889	1
0	18536	2386.772505096396	1
0	18549	2387.772505096396	1
0	18582	2391.664801225549	1
0	18596	2393.384312686053	1
0	18629	2395.776466756929	1
0	18646	2397.543919563252	1
0	18673	2399.305509356066	1
0	18689	2400.634354727706	1
0	18695	2401.634354727706	1
0	18711	2404.725304584834	1
0	18733	2407.008384790331	1
0	18742	2408.008384790331	1
0	18760	2409.299472553453	1
0	18784	2413.663093238722	1
0	18805	2418.389231185415	1
0	18817	2419.607161580519	1
0	18865	2423.451765499656	1
0	18891	2427.031029998686	1
0	18965	2436.704622116933	1
0	18987	2440.328063124868	1
0	19041	2446.607216078959	1
0	19047	2447.607216078959	1
0	19070	2454.918905479357	1
0	19092	2456.785434859324	1
0	19108	2458.299999593757	1
0	19140	2461.542839306674	1
0	19154	2462.542839306674	1
0	19235	2475.056730717336	1
0	19267	2478.541502972611	1
0	19294	2483.11726740217	1
0	19338	2486.176067004768	1
0	19352	2487.176067004768	1
0	19426	2494.191480053837	1
0	19440	2495.191480053837	1
0	19466	2496.191480053837	1
0	19475	2497.191480053837	1
0	19484	2498.191480053837	1
0	19495	2499.191480053837	1
0	19547	2505.521982812102	1
0	19603	2513.350797914055	1
0	19646	2519.014775283403	1
0	19668	2520.132971456871	1
0	19677	2521.132971456871	1
0	19696	2523.159018384932	1
0	19744	2528.541290895884	1
0	19761	2529.541290895884	1
0	19790	2533.59044812729	1
0	19818	2537.219236819244	1
0	19861	2545.166213206045	1
0	19873	2548.045636364482	1
0	19911	2554.598118400853	1
0	19927	2557.223148430233	1
0	19950	2560.334227162566	1
0	19961	2561.405723644924	1
0	19982	2564.305154614015	1
0	20005	2565.305154614015	1
0	20022	2566.305154614015	1
0	20036	2567.305154614015	1
0	20053	2568.305154614015	1
0	20081	2572.059552075321	1
0	20098	2573.308825713146	1
0	20114	2574.794204467178	1
0	20141	2579.917047167732	1
0	20181	2587.41640298138	1
0	20220	2591.16619785467	1
0	20232	2592.16619785467	1
0	20259	2593.432641213238	1
0	20298	2597.462838593113	1
0	20372	2608.334262912532	1
0	20439	2616.437624759834	1
0	20478	2619.957571531011	1
0	20527	2624.577796939988	1
0	20543	2625.828238382238	1
0	20620	2634.036390556465	1
0	20703	2646.727278146178	1
0	20716	2647.727278146178	1
0	20735	2650.138274427175	1
0	20771	2657.024201810048	1
0	20785	2659.971950577795	1
0	20808	2665.260303268889	1
0	20819	2667.702121617214	1
0	20884	2676.828877602824	1
0	20914	2680.900422257802	1
0	20949	2686.375461733656	1
0	20968	2687.375461733656	1
0	20982	2688.375461733656	1
0	20991	2689.375461733656	1
0	20999	2690.375461733656	1
0	21010	2691.375461733656	1
0	21038	2698.129854064602	1
0	21065	2700.295198869237	1
0	21079	2701.295198869237	1
0	21093	2704.79545382775	1
0	21101	2705.79545382775	1
0	21112	2706.79545382775	1
0	21148	2712.722054259819	1
0	21258	2729.885915930132	1
0	21324	2737.867469819432	1
0	21353	2739.503520408395	1
0	21367	2740.503520408395	1
0	21410	2745.086449011919	1
0	21450	2750.56637880901	1
0	21461	2751.56637880901	1
0	21467	2752.56637880901	1
0	21489	2754.968915681088	1
0	21533	2761.765656652498	1
0	21586	2766.99356589595	1
0	21611	2773.309599880475	1
0	21643	2779.981060561774	1
0	21655	2781.637391399676	1
0	21676	2784.492881519349	1
0	21684	2785.492881519349	1
0	21703	2786.497054502829	1
0	21736	2790.06842307029	1
0	21748	2791.06842307029	1
0	21775	2793.700005064452	1
0	21797	2798.108809935471	1
0	21879	2807.701366285705	1
0	21890	2808.701366285705	1
0	21899	2809.701366285705	1
0	21918	2814.73578327295	1
0	21921	2815.73578327295	1
0	21929	2817.013363377751	1
0	22050	2836.64481454515	1
0	22061	2840.635093540616	1
0	22092	2844.635967258652	1
0	22106	2846.344182460556	1
0	22128	2849.609993400868	1
0	22138	2852.374366258471	1
0	22161	2857.176985884693	1
0	22193	2859.810793441869	1
0	22196	2860.810793441869	1
0	22226	2864.2552848454	1
0	22282	2870.646425285788	1
0	22313	2873.104180360714	1
0	22402	2883.974385758288	1
0	22425	2887.746060713327	1
0	22435	2890.089891957096	1
0	22490	2900.428087505203	1
0	22501	2902.145255392366	1
0	22509	2903.145255392366	1
0	22520	2904.145255392366	1
0	22542	2905.472734118536	1
0	22589	2911.027472019254	1
0	22607	2912.027472019254	1
0	22621	2913.027472019254	1
0	22666	2916.109386127267	1
0	22688	2920.972992242268	1
0	22720	2923.344310934285	1
0	22732	2924.344310934285	1
0	22853	2945.198231522027	1
0	22874	2948.83576731103	1
0	22888	2949.83576731103	1
0	22914	2951.497308479011	1
0	22959	2953.933289983542	1
0	22968	2954.933289983542	1
0	23019	2960.422826075371	1
0	23029	2962.295113654253	1
0	23040	2964.41651985239	1
0	23059	2966.701338667833	1
0	23078	2970.34450412109	1
0	23095	2971.782618830314	1
0	23112	2974.82005261336	1
0	23166	2981.0034178466	1
0	23210	2986.653687415093	1
0	23222	2987.814297127409	1
0	23238	2990.641430517164	1
0	23321	2997.766344786519	1
0	23382	3003.080986020933	1
0	23397	3005.435146732607	1
0	23458	3012.735825207882	1
0	23470	3013.771662339262	1
0	23481	3015.202730482528	1
0	23502	3017.400280283855	1
0	23518	3019.134859486659	1
0	23537	3020.134859486659	1
0	23568	3023.916261729934	1
0	23585	3025.05219729887	1
0	23602	3028.120013666666	1
0	23645	3034.830926224214	1
0	23661	3040.074948446071	1
0	23715	3043.176141441498	1
0	23732	3044.176141441498	1
0	23746	3045.176141441498	1
0	23763	3046.176141441498	1
0	23779	3047.176141441498	1
0	23788	3048.176141441498	1
0	23799	3050.218665219237	1
0	23876	3063.443564048122	1
0	23887	3064.640435890119	1
0	23903	3066.990665233154	1
0	23930	3069.214108776985	1
0	23944	3070.214108776985	1
0	23961	3071.214108776985	1
0	24000	3076.090482530637	1
0	24046	3080.063735859352	1
0	24075	3082.343000246015	1
0	24103	3084.348785850775	1
0	24131	3085.561691433473	1
0	24155	3086.561691433473	1
0	24167	3087.561691433473	1
0	24206	3093.374543754727	1
0	24260	3098.375229961033	1
0	24299	3101.043170294868	1
0	24311	3102.043170294868	1
0	24404	3110.110157183653	1
0	24420	3112.236884632883	1
0	24438	3113.576656171599	1
0	24459	3115.673189053943	1
0	24487	3118.064391567078	1
0	24570	3132.259159699948	1
0	24581	3136.017531515683	1
0	24596	3137.821866396159	1
0	24614	3141.357759659246	1
0	24634	3142.589689793336	1
0	24651	3143.589689793336	1
0	24660	3144.589689793336	1
0	24684	3148.43954599388	1
0	24706	3150.076764583737	1
0	24723	3151.97677423291	1
0	24753	3154.315282291782	1
0	24788	3158.76497187122	1
0	24807	3159.76497187122	1
0	24819	3160.76497187122	1
0	24835	3161.76497187122	1
0	24852	3163.521299113521	1
0	24988	3183.073659552045	1
0	24999	3184.64646408759	1
0	25010	3188.476260154387	1
0	25036	3193.209567376476	1
0	25053	3195.912251543748	1
0	25061	3196.912251543748	1
0	25067	3197.912251543748	1
0	25143	3206.99231963171	1
0	25179	3209.664581530215	1
0	25212	3212.652879980135	1
0	25223	3213.652879980135	1
0	25229	3214.652879980135	1
0	25267	3219.010282716413	1
0	25305	3221.881725292349	1
0	25329	3222.881725292349	1
0	25338	3223.881725292349	1
0	25344	3224.881725292349	1
0	25350	3225.881725292349	1
0	25367	3227.166198869482	1
0	25459	3237.312605003908	1
0	25476	3238.312605003908	1
0	25485	3239.312605003908	1
0	25531	3244.689514723183	1
0	25547	3245.689514723183	1
0	25684	3261.964630201776	1
0	25696	3262.964630201776	1
0	25733	3267.53122206219	1
0	25766	3270.870378357942	1
0	25783	3271.870378357942	1
0	25800	3272.870378357942	1
0	25819	3273.870378357942	1
0	25831	3274.870378357942	1
0	25852	3275.870378357942	1
0	25872	3276.870378357942	1
0	26015	3287.290645702889	1
0	26026	3288.290645702889	1
0	26032	3289.290645702889	1
0	26043	3290.900993129241	1
0	26046	3291.900993129241	1
0	26075	3293.325362510271	1
0	26099	3294.325362510271	1
0	26123	3295.325362510271	1
0	26140	3296.325362510271	1
0	26155	3297.325362510271	1
0	26161	3298.325362510271	1
0	26169	3299.325362510271	1
0	26175	3300.325362510271	1
0	26240	3306.895081917461	1
0	26294	3312.568216714569	1
0	26317	3313.988074498975	1
0	26334	3314.988074498975	1
0	26353	3315.988074498975	1
0	26400	3322.472691724596	1
0	26409	3323.472691724596	1
0	26418	3325.041653099188	1
0	26429	3328.547058172997	1
0	26466	3337.149194652811	1
0	26480	3338.149194652811	1
0	26506	3342.877451087187	1
0	26620	3360.541608162299	1
0	26626	3361.541608162299	1
0	26686	3369.791530657647	1
0	26763	3376.275051290805	1
0	26821	3384.103283138115	1
0	26852	3386.774782482833	1
0	26869	3389.333447535869	1
0	26891	3392.450341361695	1
0	26912	3394.406170015815	1
0	26923	3395.406170015815	1
0	26934	3396.870859304984	1
0	26990	3406.880647027578	1
0	27093	3418.812222678039	1
0	27122	3419.812222678039	1
0	27134	3420.812222678039	1
0	27143	3421.812222678039	1
0	27160	3423.564257230886	1
0	27192	3426.838595901015	1
0	27225	3429.706718960097	1
0	27294	3437.404447454437	1
0	27310	3438.404447454437	1
0	27321	3439.404447454437	1
0	27330	3440.404447454437	1
0	27342	3444.034302916848	1
0	27368	3447.233420248826	1
0	27413	3453.752858398191	1
0	27431	3454.752858398191	1
0	27445	3455.752858398191	1
0	27468	3456.969001915177	1
0	27496	3459.559238478694	1
0	27506	3461.359235847398	1
0	27539	3466.113768243879	1
0	27561	3467.698758596837	1
0	27572	3468.698758596837	1
0	27583	3470.427766424819	1
0	27591	3471.427766424819	1
0	27654	3476.499606306991	1
0	27665	3477.499606306991	1
0	27813	3496.153166611647	1
0	27852	3499.769606593818	1
0	27863	3500.769606593818	1
0	27879	3501.769606593818	1
0	27891	3502.769606593818	1
0	27902	3503.865415071074	1
0	27940	3510.170910851937	1
0	27949	3511.170910851937	1
0	28006	3522.594371817856	1
0	28015	3523.594371817856	1
0	28028	3524.714250815274	1
0	28064	3528.368316636499	1
0	28112	3535.030393915978	1
0	28128	3536.854792621296	1
0	28167	3542.397728767504	1
0	28218	3550.100873640719	1