version 3
run k_MM1_rand-6-20221127-16:03:21-5740
attr configname k_MM1_rand
attr datetime 20221127-16:03:21
attr datetimef 20221127-160321
attr experiment k_MM1_rand
attr inifile omnetpp.ini
attr iterationvars "$time=1.0, $num=5, $0=47853, $1=24674, $2=96433"
attr iterationvarsd time=1.0/num=5/47853/24674/96433
attr iterationvarsf time=1.0,num=5,47853,24674,96433-
attr measurement "$time=1.0, $num=5, $0=47853, $1=24674, $2=96433"
attr network randkMM1
attr processid 5740
attr repetition 2
attr replication #2
attr resultdir results
attr runnumber 6
attr seedset 6
itervar num 5
itervar time 1.0
config description "MM1 module k-times random"
config network randkMM1
config **.source.interArrivalTime "truncnormal(0.5s, 1.5s)"
config **.serviceTime 1.0s
config **.c 5
config **.capacity 10000
config record-eventlog false
config **.scalar-recording true
config **.vector-recording true
config repeat 4
config seed-1-mt 47853
config seed-2-mt 24674
config seed-3-mt 96433
config output-vector-file k_MM1_rand-5-1.0-results/2.vec
config output-scalar-file k_MM1_rand-5-1.0-results/2.sca

vector 0 randkMM1.mm1[3] util:vector ETV
attr interpolationmode none
attr recordingmode vector
attr title resources
vector 1 randkMM1.mm1[0] util:vector ETV
attr interpolationmode none
attr recordingmode vector
attr title resources
vector 2 randkMM1.mm1[2] util:vector ETV
attr interpolationmode none
attr recordingmode vector
attr title resources
vector 3 randkMM1.mm1[4] util:vector ETV
attr interpolationmode none
attr recordingmode vector
attr title resources
vector 4 randkMM1.mm1[1] queueLength:vector ETV
attr interpolationmode none
attr recordingmode vector
attr title "queue length"
vector 5 randkMM1.mm1[1] util:vector ETV
attr interpolationmode none
attr recordingmode vector
attr title resources
vector 6 randkMM1.mm1[4] queueLength:vector ETV
attr interpolationmode none
attr recordingmode vector
attr title "queue length"
vector 7 randkMM1.mm1[3] queueLength:vector ETV
attr interpolationmode none
attr recordingmode vector
attr title "queue length"
vector 8 randkMM1.mm1[0] queueLength:vector ETV
attr interpolationmode none
attr recordingmode vector
attr title "queue length"
vector 9 randkMM1.mm1[2] queueLength:vector ETV
attr interpolationmode none
attr recordingmode vector
attr title "queue length"
0	6	11	1
0	23	14.499292985503	1
0	50	18.598980632868	1
0	73	21.947407757102	1
0	121	26.169575642281	1
0	127	27.169575642281	1
0	130	28.169575642281	1
0	139	30.738892937267	1
0	207	37.51967995036	1
0	240	39.626793822068	1
0	253	40.626793822068	1
0	296	45.16366234677	1
0	311	46.16366234677	1
0	324	47.16366234677	1
0	343	48.16366234677	1
0	355	49.16366234677	1
0	366	50.16366234677	1
0	380	52.982093315744	1
0	407	55.11491304559	1
0	430	58.253840369857	1
0	473	63.697359814634	1
0	514	70.362840202418	1
0	534	72.688730675586	1
0	556	74.916116739207	1
0	627	84.0974268693	1
0	635	85.0974268693	1
0	641	86.0974268693	1
0	649	87.0974268693	1
0	652	88.0974268693	1
0	660	89.0974268693	1
0	671	90.0974268693	1
0	685	91.0974268693	1
0	715	95.353564792446	1
0	779	102.503182759074	1
0	809	104.921425707651	1
0	818	105.921425707651	1
0	853	108.325273798269	1
0	866	109.325273798269	1
0	875	110.325273798269	1
0	891	111.820304502617	1
0	905	112.820304502617	1
0	916	113.820304502617	1
0	941	115.802733217135	1
0	996	122.161324901454	1
0	1045	128.05136248591	1
0	1059	129.05136248591	1
0	1080	130.05136248591	1
0	1097	131.05136248591	1
0	1114	132.05136248591	1
0	1133	135.657233349045	1
0	1166	139.375307185362	1
0	1172	140.375307185362	1
0	1189	142.877597554531	1
0	1287	151.69000285298	1
0	1332	155.877337507289	1
0	1367	162.01745686676	1
0	1387	164.580015429009	1
0	1414	167.882868662579	1
0	1417	168.882868662579	1
0	1463	176.944136187926	1
0	1545	185.040539625	1
0	1557	186.040539625	1
0	1584	189.301109567473	1
0	1640	197.570079902282	1
0	1657	200.635761943593	1
0	1704	204.933850661519	1
0	1716	205.933850661519	1
0	1733	207.565668455532	1
0	1765	210.660295617161	1
0	1787	211.660295617161	1
0	1837	217.286662721909	1
0	1851	218.286662721909	1
0	1865	221.136842107852	1
0	1899	224.68521616953	1
0	1920	228.289513461746	1
0	1939	233.929077042254	1
0	1950	234.929077042254	1
0	1970	236.853873483819	1
0	2079	253.461572712897	1
0	2118	256.850298984896	1
0	2179	265.725157539911	1
0	2256	277.818269565103	1
0	2278	278.910783371598	1
0	2294	281.188610770717	1
0	2333	288.387446527202	1
0	2351	289.387446527202	1
0	2368	290.387446527202	1
0	2380	291.496005137189	1
0	2428	296.817404519778	1
0	2453	298.71754832752	1
0	2504	302.344149071708	1
0	2525	305.246978165521	1
0	2586	310.05631380723	1
0	2602	313.016411767182	1
0	2640	317.11916744486	1
0	2673	323.260130152442	1
0	2717	327.682337456697	1
0	2723	328.682337456697	1
0	2726	329.682337456697	1
0	2745	332.268117259118	1
0	2756	334.237677431528	1
0	2816	341.222450204764	1
0	2838	343.107453830234	1
0	2852	344.107453830234	1
0	2871	346.813120326594	1
0	2938	360.358127470651	1
0	2949	361.358127470651	1
0	2971	365.329879448809	1
0	3025	369.674245178823	1
0	3092	379.070884221914	1
0	3100	380.070884221914	1
0	3142	388.269823609162	1
0	3157	389.720734137807	1
0	3166	390.720734137807	1
0	3212	397.112698538898	1
0	3240	399.359987451324	1
0	3243	400.359987451324	1
0	3252	402.219658781855	1
0	3307	414.313806893086	1
0	3331	418.197552412071	1
0	3361	422.492241750629	1
0	3383	426.080903469901	1
0	3410	428.363503586738	1
0	3428	431.871810787865	1
0	3468	439.86859896796	1
0	3482	441.881944460253	1
0	3581	453.678860699188	1
0	3642	459.6148635425	1
0	3655	460.791776925602	1
0	3669	462.64237706316	1
0	3691	466.615786831101	1
0	3703	467.939892981022	1
0	3713	470.021674530687	1
0	3758	476.141278302358	1
0	3812	481.123576449551	1
0	3823	483.628898186724	1
0	3867	488.674881170061	1
0	3879	493.376058511983	1
0	3916	500.239531297004	1
0	3925	501.239531297004	1
0	3939	502.451361391304	1
0	3950	503.451361391304	1
0	3968	504.451361391304	1
0	3980	505.451361391304	1
0	4044	510.714324011682	1
0	4065	514.454436495574	1
0	4068	515.454436495574	1
0	4084	517.544942611179	1
0	4099	519.735885539923	1
0	4115	520.997934907005	1
0	4213	536.419405435864	1
0	4222	537.419405435864	1
0	4296	546.353744171186	1
0	4313	547.543034755835	1
0	4335	549.00892022002	1
0	4348	550.00892022002	1
0	4400	557.096673824568	1
0	4409	558.096673824568	1
0	4473	566.710126270822	1
0	4483	567.93994001866	1
0	4510	572.011063919885	1
0	4549	576.731112809855	1
0	4576	580.864215840743	1
0	4595	582.101143324178	1
0	4604	583.101143324178	1
0	4617	584.101143324178	1
0	4634	585.101143324178	1
0	4645	586.101143324178	1
0	4681	591.340547036721	1
0	4709	593.861504295966	1
0	4734	596.004050627501	1
0	4786	602.922727627856	1
0	4794	603.922727627856	1
0	4802	605.259610290391	1
0	4815	606.259610290391	1
0	4834	607.259610290391	1
0	4856	608.259610290391	1
0	4873	609.259610290391	1
0	4884	610.259610290391	1
0	4893	611.259610290391	1
0	4945	618.680385179098	1
0	4956	620.537509107928	1
0	4978	623.048743175017	1
0	5001	626.152748801362	1
0	5044	631.681254996608	1
0	5077	635.693655992221	1
0	5089	636.693655992221	1
0	5143	642.398530868549	1
0	5155	644.018940891146	1
0	5165	645.789778607559	1
0	5199	652.873554568545	1
0	5215	654.627372561295	1
0	5223	655.627372561295	1
0	5248	661.121546033258	1
0	5261	662.121546033258	1
0	5267	663.121546033258	1
0	5276	666.193357112129	1
0	5313	670.974411876849	1
0	5324	671.974411876849	1
0	5335	672.974411876849	1
0	5346	673.974411876849	1
0	5368	675.93309065387	1
0	5402	678.802054914791	1
0	5410	679.802054914791	1
0	5534	702.368825671737	1
0	5550	703.541772320193	1
0	5606	710.796680468823	1
0	5639	716.124126413278	1
0	5687	722.214609580689	1
0	5696	723.214609580689	1
0	5712	725.489834669115	1
0	5742	729.537025281211	1
0	5830	743.018522136254	1
0	5836	744.018522136254	1
0	5844	745.018522136254	1
0	5867	749.194007977474	1
0	5880	750.649793134124	1
0	5937	755.34897509561	1
0	5979	759.426918419051	1
0	5987	760.426918419051	1
0	6031	767.229605230715	1
0	6055	770.255331817882	1
0	6067	771.255331817882	1
0	6108	778.435463245509	1
0	6178	786.136626286443	1
0	6189	788.477831350504	1
0	6259	798.699759153129	1
0	6303	805.648255251752	1
0	6336	809.803838882831	1
0	6345	810.803838882831	1
0	6364	813.880075579845	1
0	6367	814.880075579845	1
0	6375	817.331392047766	1
0	6392	819.03001002427	1
0	6422	821.161257052372	1
0	6490	829.359552433892	1
0	6516	832.121431706234	1
0	6545	835.574340415919	1
0	6559	836.574340415919	1
0	6565	837.574340415919	1
0	6578	841.192505821039	1
0	6606	850.013970754653	1
0	6639	856.416535842217	1
0	6647	857.416535842217	1
0	6658	858.416535842217	1
0	6664	859.416535842217	1
0	6678	861.249238563282	1
0	6694	862.249238563282	1
0	6702	863.249238563282	1
0	6713	864.249238563282	1
0	6732	865.645208512635	1
0	6741	866.645208512635	1
0	6766	868.659248776368	1
0	6794	874.050717223172	1
0	6815	878.777307298683	1
0	6925	895.075157427556	1
0	6952	896.722889803034	1
0	7007	903.929359738693	1
0	7021	904.929359738693	1
0	7100	916.129612931396	1
0	7112	917.129612931396	1
0	7139	920.03243573591	1
0	7167	923.02221954499	1
0	7200	926.418672621472	1
0	7223	930.723756383422	1
0	7272	937.030564184845	1
0	7322	943.418642500672	1
0	7333	945.175775022891	1
0	7344	946.316285064344	1
0	7409	958.776570448302	1
0	7425	960.081248518381	1
0	7436	961.081248518381	1
0	7442	962.081248518381	1
0	7455	963.081248518381	1
0	7464	964.081248518381	1
0	7472	965.081248518381	1
0	7553	975.135282231012	1
0	7563	976.462130911327	1
0	7571	977.462130911327	1
0	7631	983.653785659383	1
0	7640	984.653785659383	1
0	7653	985.653785659383	1
0	7701	990.59369219139	1
0	7733	993.311388692818	1
0	7742	994.311388692818	1
0	7783	1006.360751367549	1
0	7838	1014.795421179494	1
0	7850	1017.913256757536	1
0	7871	1019.526476855982	1
0	7917	1022.779642224573	1
0	7942	1026.609130641265	1
0	7970	1030.772373472476	1
0	7981	1032.724604564987	1
0	8008	1036.902798532337	1
0	8027	1038.435409376902	1
0	8038	1039.435409376902	1
0	8089	1045.748939315014	1
0	8169	1058.060357023981	1
0	8180	1060.679357423232	1
0	8223	1066.50134246498	1
0	8318	1078.517017551288	1
0	8327	1079.517017551288	1
0	8388	1089.155693244129	1
0	8421	1091.680078002891	1
0	8443	1092.680078002891	1
0	8456	1093.680078002891	1
0	8462	1094.680078002891	1
0	8468	1095.680078002891	1
0	8476	1097.508409346975	1
0	8525	1101.918096783698	1
0	8583	1106.078363990721	1
0	8609	1109.96528524295	1
0	8674	1118.275186269322	1
0	8730	1126.072460133161	1
0	8768	1129.171711560916	1
0	8839	1134.621801545258	1
0	8873	1141.582909434353	1
0	8888	1142.76761242498	1
0	8927	1146.006496676927	1
0	8943	1148.473434038778	1
0	8965	1150.147978607809	1
0	9103	1168.839977018262	1
0	9147	1177.82192362144	1
0	9158	1180.397261648795	1
0	9213	1190.876299343951	1
0	9276	1201.375947021265	1
0	9287	1202.375947021265	1
0	9293	1203.375947021265	1
0	9306	1205.127639881052	1
0	9315	1206.127639881052	1
0	9329	1209.455055803984	1
0	9395	1217.002050177724	1
0	9427	1222.169335843881	1
0	9436	1223.169335843881	1
0	9460	1226.152516778261	1
0	9482	1227.174865816518	1
0	9493	1228.174865816518	1
0	9552	1234.322386304961	1
0	9596	1238.225533777729	1
0	9652	1245.932212335464	1
0	9747	1254.494875064595	1
0	9758	1255.494875064595	1
0	9814	1259.830219530934	1
0	9829	1260.830219530934	1
0	9862	1266.347643611751	1
0	9873	1267.856354429738	1
0	9889	1269.079661844813	1
0	9905	1270.079661844813	1
0	9919	1271.079661844813	1
0	9925	1272.079661844813	1
0	9945	1275.393478856436	1
0	9953	1276.393478856436	1
0	9988	1284.146223677855	1
0	10005	1285.232690114157	1
0	10049	1291.700132386061	1
0	10071	1295.136667700395	1
0	10126	1305.227249495703	1
0	10154	1308.660046341389	1
0	10167	1309.660046341389	1
0	10173	1310.660046341389	1
0	10192	1313.413664545305	1
0	10203	1315.185526024747	1
0	10214	1316.888646695278	1
0	10231	1318.265340820841	1
0	10239	1319.265340820841	1
0	10253	1320.948699091006	1
0	10275	1323.60800492628	1
0	10313	1326.525971976747	1
0	10352	1333.951450399954	1
0	10360	1334.951450399954	1
0	10373	1336.972081933069	1
0	10439	1343.135155161075	1
0	10489	1349.022513206303	1
0	10497	1350.022513206303	1
0	10508	1351.022513206303	1
0	10524	1352.022513206303	1
0	10533	1353.022513206303	1
0	10556	1356.458020115405	1
0	10566	1359.425576766836	1
0	10569	1360.425576766836	1
0	10588	1365.002886563968	1
0	10629	1371.660471965682	1
0	10651	1372.67869093363	1
0	10666	1375.117354196729	1
0	10748	1384.594583611281	1
0	10761	1385.594583611281	1
0	10807	1390.553663946701	1
0	10816	1391.553663946701	1
0	10822	1392.553663946701	1
0	10836	1394.788881988907	1
0	10864	1398.95053455848	1
0	10874	1402.241887412159	1
0	10984	1414.678306572357	1
0	11001	1418.447275929525	1
0	11041	1421.494431264365	1
0	11061	1423.829343244908	1
0	11069	1424.829343244908	1
0	11075	1425.829343244908	1
0	11104	1427.058732270344	1
0	11113	1428.058732270344	1
0	11119	1429.058732270344	1
0	11127	1430.525506537189	1
0	11135	1431.525506537189	1
0	11149	1433.919218685163	1
0	11160	1436.298580029918	1
0	11186	1437.722914329903	1
0	11206	1438.722914329903	1
0	11242	1441.240339980557	1
0	11256	1442.240339980557	1
0	11300	1447.790047579062	1
0	11374	1461.441804467937	1
0	11402	1464.015300173111	1
0	11418	1467.808312023135	1
0	11440	1469.956202943086	1
0	11449	1470.956202943086	1
0	11457	1472.464517716236	1
0	11520	1479.875750156006	1
0	11545	1486.526663011227	1
0	11594	1495.442006328306	1
0	11619	1497.444331679097	1
0	11643	1498.962935120622	1
0	11649	1499.962935120622	1
0	11655	1500.962935120622	1
0	11663	1501.962935120622	1
0	11679	1502.962935120622	1
0	11685	1503.962935120622	1
0	11701	1504.962935120622	1
0	11718	1505.962935120622	1
0	11724	1506.962935120622	1
0	11754	1512.550641896321	1
0	11762	1513.550641896321	1
0	11782	1515.551574491333	1
0	11839	1522.652269490137	1
0	11845	1523.652269490137	1
0	11863	1525.359478843252	1
0	11887	1529.300539003444	1
0	11927	1535.159615035175	1
0	11942	1538.32194356947	1
0	11990	1545.721037718507	1
0	11999	1546.721037718507	1
0	12008	1548.057041236819	1
0	12034	1551.220134723288	1
0	12071	1556.205540239744	1
0	12100	1557.656901795496	1
0	12150	1564.619526656178	1
0	12167	1567.070217209911	1
0	12205	1572.06052072589	1
0	12232	1576.917851287186	1
0	12260	1580.350575328775	1
0	12277	1582.164979984384	1
0	12287	1583.164979984384	1
0	12306	1584.164979984384	1
0	12312	1585.164979984384	1
0	12323	1586.164979984384	1
0	12343	1589.778471000469	1
0	12351	1590.778471000469	1
0	12360	1593.309483173918	1
0	12375	1595.601718769466	1
0	12393	1598.546983006623	1
0	12404	1599.986167650692	1
0	12425	1603.11888018881	1
0	12447	1605.016719914108	1
0	12512	1611.749826549294	1
0	12526	1612.749826549294	1
0	12535	1613.749826549294	1
0	12551	1619.338687297319	1
0	12562	1620.338687297319	1
0	12573	1621.338687297319	1
0	12587	1622.338687297319	1
0	12593	1623.338687297319	1
0	12656	1631.745604434666	1
0	12664	1632.745604434666	1
0	12727	1643.170255284401	1
0	12739	1644.170255284401	1
0	12783	1648.747294163362	1
0	12791	1649.747294163362	1
0	12811	1653.239240058841	1
0	12863	1657.492807718926	1
0	12877	1660.56593882385	1
0	12975	1673.41497142594	1
0	13068	1683.228624511485	1
0	13138	1689.094954900524	1
0	13151	1691.620210537884	1
0	13174	1693.965135080763	1
0	13211	1698.955611781077	1
0	13229	1701.208186596969	1
0	13249	1704.549763118295	1
0	13261	1705.549763118295	1
0	13278	1708.478900990986	1
0	13345	1714.257252151402	1
0	13360	1715.257252151402	1
0	13420	1722.46060344651	1
0	13434	1723.46060344651	1
0	13512	1728.775292519495	1
0	13525	1730.274735414414	1
0	13537	1732.68159306629	1
0	13565	1734.439359627472	1
0	13574	1735.439359627472	1
0	13580	1736.439359627472	1
0	13602	1738.701414775666	1
0	13646	1743.485502528346	1
0	13690	1748.925351065999	1
0	13739	1752.581403218315	1
0	13762	1755.284681021536	1
0	13818	1762.474206743047	1
0	13832	1763.474206743047	1
0	13846	1764.474206743047	1
0	13866	1766.07210057445	1
0	13921	1774.643033592869	1
0	13949	1778.232802695858	1
0	13957	1779.232802695858	1
0	13981	1782.389007016263	1
0	14014	1786.427365024952	1
0	14048	1791.435215256049	1
0	14092	1797.435096082817	1
0	14108	1799.121708375975	1
0	14296	1827.433041645108	1
0	14317	1833.177525501577	1
0	14325	1834.177525501577	1
0	14349	1836.026429502862	1
0	14405	1839.653128256925	1
0	14438	1843.568628887002	1
0	14482	1846.992458112173	1
0	14498	1850.12552834175	1
0	14525	1852.72276319961	1
0	14648	1863.341911092465	1
0	14740	1874.748625268949	1
0	14825	1888.208265996831	1
0	14850	1893.197296469523	1
0	14859	1894.197296469523	1
0	14884	1899.169323676827	1
0	14901	1901.097760110043	1
0	14966	1909.522336887423	1
0	15103	1920.30620312373	1
0	15117	1921.30620312373	1
0	15173	1929.568152252155	1
0	15205	1931.446105959736	1
0	15230	1935.973619849643	1
0	15238	1936.973619849643	1
0	15244	1937.973619849643	1
0	15260	1939.28063767213	1
0	15271	1940.821701763895	1
0	15295	1942.593100679138	1
0	15318	1944.160363339962	1
0	15335	1945.610549860728	1
0	15371	1949.746400736326	1
0	15393	1951.337865400808	1
0	15456	1959.693607612043	1
0	15483	1962.818195143644	1
0	15521	1966.99165107125	1
0	15552	1969.659762621691	1
0	15579	1971.761049688538	1
0	15590	1972.761049688538	1
0	15620	1978.037586751829	1
0	15626	1979.037586751829	1
0	15637	1981.718581999991	1
0	15660	1987.24619596305	1
0	15724	1996.61444275595	1
0	15747	1999.426588368425	1
0	15774	2003.940358938355	1
0	15818	2007.721676000583	1
0	15868	2012.249912234105	1
0	15880	2013.909822170628	1
0	15911	2017.332539139683	1
0	15923	2018.332539139683	1
0	15945	2022.877808996744	1
0	16022	2035.036436598293	1
0	16105	2045.430806561726	1
0	16135	2047.827551117674	1
0	16170	2052.732496876386	1
0	16204	2056.162321825287	1
0	16221	2057.800376639677	1
0	16314	2071.923357766229	1
0	16382	2081.016534779169	1
0	16388	2082.016534779169	1
0	16408	2085.047979962061	1
0	16418	2086.207630864535	1
0	16456	2090.485786115169	1
0	16473	2092.987428622241	1
0	16495	2095.890262793658	1
0	16517	2100.762524478619	1
0	16529	2101.968823871759	1
0	16555	2105.135914316143	1
0	16575	2106.547689079975	1
0	16599	2108.970113438567	1
0	16613	2109.970113438567	1
0	16627	2113.956535965401	1
0	16643	2116.566657891337	1
0	16649	2117.566657891337	1
0	16652	2118.566657891337	1
0	16671	2120.371296328769	1
0	16680	2121.371296328769	1
0	16693	2123.143000401637	1
0	16705	2125.884909090246	1
0	16726	2131.375457523044	1
0	16737	2133.207575795172	1
0	16749	2135.259515909739	1
0	16760	2138.277616877243	1
0	16787	2144.813352972225	1
0	16798	2145.813352972225	1
0	16814	2148.387161918987	1
0	16852	2152.426175031024	1
0	16913	2159.73789925867	1
0	16921	2160.73789925867	1
0	16936	2165.179583032598	1
0	16962	2170.38610168712	1
0	16973	2171.38610168712	1
0	16992	2172.38610168712	1
0	17001	2173.38610168712	1
0	17009	2174.38610168712	1
0	17020	2175.38610168712	1
0	17026	2176.38610168712	1
0	17046	2181.100607301659	1
0	17068	2185.36926061761	1
0	17095	2190.089582271559	1
0	17111	2191.473940489278	1
0	17127	2193.510539072121	1
0	17146	2194.782843217816	1
0	17163	2195.782843217816	1
0	17169	2196.782843217816	1
0	17183	2198.80433024076	1
0	17232	2205.357028306264	1
0	17266	2211.327513641597	1
0	17276	2212.359067142811	1
0	17293	2214.911945450485	1
0	17304	2215.911945450485	1
0	17312	2216.911945450485	1
0	17368	2224.504074950188	1
0	17380	2225.504074950188	1
0	17394	2226.504074950188	1
0	17413	2227.712902132568	1
0	17424	2228.712902132568	1
0	17435	2229.712902132568	1
0	17446	2230.712902132568	1
0	17479	2237.364931716609	1
0	17485	2238.364931716609	1
0	17501	2240.141887913511	1
0	17540	2244.939667138015	1
0	17543	2245.939667138015	1
0	17562	2247.10470147495	1
0	17565	2248.10470147495	1
0	17584	2249.841060614005	1
0	17596	2251.317912529188	1
0	17607	2252.803890987817	1
0	17617	2254.155125530521	1
0	17639	2257.918273056823	1
0	17666	2260.7309314231	1
0	17683	2261.7309314231	1
0	17696	2262.7309314231	1
0	17705	2263.7309314231	1
0	17727	2267.297650527513	1
0	17743	2268.732710444996	1
0	17776	2272.200932443542	1
0	17795	2273.200932443542	1
0	17804	2274.200932443542	1
0	17838	2282.40960145442	1
0	17914	2298.319615101972	1
0	17957	2302.589685198625	1
0	17992	2306.277112023574	1
0	18007	2307.824575309329	1
0	18047	2313.065665690443	1
0	18073	2315.267081946234	1
0	18122	2319.929218426844	1
0	18196	2329.549275856989	1
0	18210	2330.549275856989	1
0	18243	2332.037964012095	1
0	18263	2334.479113086532	1
0	18325	2343.496757561566	1
0	18337	2344.496757561566	1
0	18360	2346.625595726497	1
0	18368	2347.625595726497	1
0	18387	2349.193463440747	1
0	18398	2351.894305577562	1
0	18422	2353.614707548284	1
0	18431	2354.614707548284	1
0	18476	2361.10570712058	1
0	18492	2362.648451320904	1
0	18514	2365.148732596501	1
0	18527	2366.148732596501	1
0	18533	2367.148732596501	1
0	18547	2369.794241360146	1
0	18574	2372.236190402767	1
0	18602	2375.894449546803	1
0	18615	2376.894449546803	1
0	18656	2381.979074819317	1
0	18665	2382.979074819317	1
0	18678	2385.088929317582	1
0	18706	2388.667479552382	1
0	18709	2389.667479552382	1
0	18717	2391.955449080481	1
0	18739	2396.439010283374	1
0	18777	2400.001166209125	1
0	18786	2401.001166209125	1
0	18816	2405.751711930316	1
0	18832	2408.301457779761	1
0	18846	2409.301457779761	1
0	18857	2410.301457779761	1
0	18909	2414.974769956578	1
0	18924	2416.466617788659	1
0	18971	2426.279954011828	1
0	18998	2428.560723863744	1
0	19058	2435.533357781831	1
0	19080	2436.533357781831	1
0	19089	2437.533357781831	1
0	19099	2438.533357781831	1
0	19136	2445.398759418846	1
0	19168	2451.984934991082	1
0	19206	2455.696713128431	1
0	19235	2462.977858934991	1
0	19344	2480.423131318621	1
0	19355	2481.994611354868	1
0	19375	2483.521253585276	1
0	19410	2493.116587123174	1
0	19421	2496.03956345807	1
0	19459	2500.70274478581	1
0	19468	2501.70274478581	1
0	19503	2506.158832401178	1
0	19532	2509.302840205718	1
0	19542	2511.865880213547	1
0	19597	2520.222196318344	1
0	19605	2521.222196318344	1
0	19621	2522.222196318344	1
0	19645	2523.222196318344	1
0	19657	2524.222196318344	1
0	19663	2525.222196318344	1
0	19681	2526.222196318344	1
0	19695	2527.222196318344	1
0	19704	2528.222196318344	1
0	19715	2529.222196318344	1
0	19726	2530.222196318344	1
0	19751	2533.495246020728	1
0	19754	2534.495246020728	1
0	19778	2537.239099914051	1
0	19805	2539.611124782608	1
0	19830	2540.611124782608	1
0	19877	2547.576324661015	1
0	19891	2548.576324661015	1
0	19902	2549.576324661015	1
0	19908	2550.576324661015	1
0	19927	2551.632174251672	1
0	19949	2554.854612183119	1
0	19983	2557.94865197872	1
0	20012	2562.587438112244	1
0	20032	2567.00884861321	1
0	20056	2569.697744793942	1
0	20071	2572.402242418485	1
0	20093	2580.797075897294	1
0	20114	2582.458228333783	1
0	20122	2583.458228333783	1
0	20128	2584.458228333783	1
0	20159	2589.58480312596	1
0	20202	2597.633531050582	1
0	20257	2604.52517185191	1
0	20274	2606.424906400301	1
0	20290	2607.624168870259	1
0	20318	2610.82142058125	1
0	20339	2612.787761025224	1
0	20348	2613.787761025224	1
0	20390	2622.791759494181	1
0	20417	2627.703320707833	1
0	20425	2628.703320707833	1
0	20433	2630.004085172751	1
0	20456	2633.859663279445	1
0	20467	2634.971019218182	1
0	20487	2637.227438614519	1
0	20522	2640.167943822743	1
0	20586	2646.505829947665	1
0	20598	2647.505829947665	1
0	20620	2651.270523315325	1
0	20675	2661.652608956187	1
0	20687	2664.041081253773	1
0	20698	2667.188835254532	1
0	20708	2669.015198219772	1
0	20725	2670.068162299674	1
0	20764	2675.902225160042	1
0	20828	2681.72849576597	1
0	20840	2682.72849576597	1
0	20862	2687.332236267082	1
0	20874	2688.572210147983	1
0	20936	2694.253967740092	1
0	20973	2700.112177469585	1
0	20984	2701.927331366843	1
0	21011	2704.055166757565	1
0	21049	2708.389817171878	1
0	21052	2709.389817171878	1
0	21061	2711.249060260784	1
0	21139	2719.327215704279	1
0	21181	2729.071061420916	1
0	21203	2734.07500120553	1
0	21215	2739.095282565469	1
0	21236	2741.735828476384	1
0	21249	2742.735828476384	1
0	21255	2743.735828476384	1
0	21258	2744.735828476384	1
0	21266	2745.735828476384	1
0	21318	2753.75511870536	1
0	21330	2754.75511870536	1
0	21358	2757.22718498947	1
0	21385	2758.75039542928	1
0	21398	2759.75039542928	1
0	21431	2765.998621564246	1
0	21442	2766.998621564246	1
0	21448	2767.998621564246	1
0	21494	2773.66636679796	1
0	21511	2774.66636679796	1
0	21548	2777.101203766771	1
0	21560	2778.101203766771	1
0	21571	2779.101203766771	1
0	21582	2780.101203766771	1
0	21591	2781.101203766771	1
0	21611	2785.21753445744	1
0	21627	2787.175919724142	1
0	21640	2788.175919724142	1
0	21646	2789.175919724142	1
0	21654	2790.957112623363	1
0	21681	2796.700753268218	1
0	21739	2809.820564952699	1
0	21745	2810.820564952699	1
0	21753	2812.882488696192	1
0	21792	2819.455179532549	1
0	21798	2820.455179532549	1
0	21849	2826.487693056203	1
0	21868	2827.790621831744	1
0	21895	2829.804947684434	1
0	21926	2832.61240842715	1
0	21945	2834.248451769571	1
0	21989	2839.78369169386	1
0	21998	2840.78369169386	1
0	22028	2844.538535575806	1
0	22036	2845.538535575806	1
0	22050	2846.92131784391	1
0	22072	2849.988682571087	1
0	22127	2858.521728556819	1
0	22150	2860.898067043706	1
0	22161	2864.421032923219	1
0	22193	2871.91033521165	1
0	22214	2873.065997244598	1
0	22229	2874.065997244598	1
0	22237	2877.166912841462	1
0	22281	2884.503437127028	1
0	22313	2889.15515021151	1
0	22347	2892.406837378202	1
0	22363	2893.406837378202	1
0	22382	2894.406837378202	1
0	22435	2901.94329971267	1
0	22444	2902.94329971267	1
0	22449	2903.94329971267	1
0	22462	2908.400491546199	1
0	22471	2909.400491546199	1
0	22517	2913.590979992432	1
0	22523	2914.590979992432	1
0	22531	2915.590979992432	1
0	22537	2916.590979992432	1
0	22562	2920.698152286336	1
0	22573	2921.698152286336	1
0	22638	2928.868445265141	1
0	22677	2934.043488949228	1
0	22729	2942.895220628001	1
0	22762	2947.234849530479	1
0	22803	2953.372841837954	1
0	22814	2954.372841837954	1
0	22823	2955.372841837954	1
0	22865	2960.90348481224	1
0	22940	2972.473064572021	1
0	22963	2974.770046590116	1
0	23023	2983.422378171465	1
0	23032	2984.422378171465	1
0	23040	2986.124728446865	1
0	23095	2992.056109600436	1
0	23122	2994.401280050988	1
0	23188	3004.217234938987	1
0	23221	3006.901292847807	1
0	23239	3008.503330089679	1
0	23250	3009.880898539833	1
0	23265	3011.923230427581	1
0	23288	3014.609450725075	1
0	23309	3015.893851965847	1
0	23315	3016.893851965847	1
0	23323	3017.893851965847	1
0	23354	3021.70313051881	1
0	23431	3030.058092774241	1
0	23437	3031.058092774241	1
0	23475	3033.5022374621	1
0	23486	3034.5022374621	1
0	23494	3035.5022374621	1
0	23523	3041.878057051476	1
0	23540	3042.878057051476	1
0	23645	3059.470194387332	1
0	23694	3065.656388942853	1
0	23743	3070.9035470701	1
0	23752	3071.9035470701	1
0	23768	3072.9035470701	1
0	23780	3073.9035470701	1
0	23793	3075.393399576703	1
0	23802	3076.393399576703	1
0	23926	3094.903688921178	1
0	23942	3097.020566349497	1
0	23964	3100.529865215577	1
0	23967	3101.529865215577	1
0	24020	3108.863395972735	1
0	24097	3116.955163791586	1
0	24134	3121.536345396787	1
0	24151	3122.916094299447	1
0	24178	3125.264949053672	1
0	24192	3126.617488729968	1
0	24233	3130.035899116051	1
0	24283	3136.287306880223	1
0	24296	3137.287306880223	1
0	24305	3138.287306880223	1
0	24327	3142.206561149081	1
0	24344	3143.769727253993	1
0	24360	3146.39358159291	1
0	24363	3147.39358159291	1
0	24387	3150.018143944245	1
0	24415	3155.082378078842	1
0	24418	3156.082378078842	1
0	24460	3162.149815617384	1
0	24482	3164.678027219308	1
0	24493	3165.742112314481	1
0	24503	3168.523575332513	1
0	24550	3175.594461369605	1
0	24561	3176.594461369605	1
0	24586	3179.111347346271	1
0	24599	3180.111347346271	1
0	24610	3181.111347346271	1
0	24652	3185.980032470405	1
0	24698	3189.873081259415	1
0	24728	3194.842773215284	1
0	24762	3200.298116890013	1
0	24855	3211.561207473492	1
0	24885	3213.139314152163	1
0	24937	3219.517835107062	1
0	25020	3228.385247100829	1
0	25036	3229.385247100829	1
0	25050	3230.385247100829	1
0	25056	3231.385247100829	1
0	25080	3233.464285308285	1
0	25091	3234.464285308285	1
0	25102	3235.464285308285	1
0	25113	3236.464285308285	1
0	25119	3237.464285308285	1
0	25122	3238.464285308285	1
0	25147	3240.311856563468	1
0	25186	3244.349169236715	1
0	25234	3250.38703931313	1
0	25262	3255.271559005195	1
0	25285	3258.710753576335	1
0	25317	3263.162102845693	1
0	25350	3266.087532688111	1
0	25378	3269.908893851073	1
0	25400	3272.0749969979	1
0	25443	3276.80075893537	1
0	25452	3277.80075893537	1
0	25465	3279.979436507382	1
0	25502	3284.369051220233	1
0	25527	3287.755940776673	1
0	25560	3292.5751867772	1
0	25611	3300.147122666726	1
0	25646	3303.4822167121	1
0	25655	3304.4822167121	1
0	25735	3317.558114596516	1
0	25752	3319.914136891617	1
0	25757	3320.914136891617	1
0	25765	3321.914136891617	1
0	25829	3329.614745895561	1
0	25857	3334.425888345526	1
0	25867	3336.204042241053	1
0	25870	3337.204042241053	1
0	25878	3339.299040081661	1
0	25894	3342.131729713276	1
0	25922	3345.158047724016	1
0	25960	3348.614768275325	1
0	25969	3349.614768275325	1
0	26032	3357.327421391726	1
0	26055	3360.152975965435	1
0	26070	3362.969679030951	1
0	26098	3365.098939109261	1
0	26143	3368.372882448413	1
0	26169	3370.6364722658	1
0	26254	3383.590307443273	1
0	26268	3384.760562835925	1
0	26291	3389.311087522205	1
0	26309	3390.311087522205	1
0	26321	3391.311087522205	1
0	26329	3394.042305944331	1
0	26337	3395.042305944331	1
0	26390	3400.393494210028	1
0	26401	3401.393494210028	1
0	26428	3404.365366756588	1
0	26440	3406.84081416105	1
0	26472	3411.173858173042	1
0	26501	3413.058019461123	1
0	26521	3414.058019461123	1
0	26535	3415.058019461123	1
0	26554	3417.259560584657	1
0	26680	3430.761902639734	1
0	26700	3433.085182975159	1
0	26719	3437.164124493312	1
0	26819	3447.16687410687	1
0	26843	3449.997011657864	1
0	26849	3450.997011657864	1
0	26923	3466.616982401156	1
0	26939	3468.138653656576	1
0	26956	3470.309485364825	1
0	27006	3475.332507875396	1
0	27012	3476.332507875396	1
0	27050	3483.085888535958	1
0	27078	3488.027106085164	1
0	27088	3489.750641491185	1
0	27105	3491.959594799912	1
0	27116	3492.959594799912	1
0	27160	3498.047619797913	1
0	27173	3499.047619797913	1
0	27259	3511.281510714992	1
0	27286	3513.570914293324	1
0	27354	3522.431344231431	1
0	27366	3523.431344231431	1
0	27396	3526.373611652075	1
0	27428	3528.004646158706	1
0	27442	3529.004646158706	1