version 3
run k_MM1_rand-7-20221127-16:03:21-5740
attr configname k_MM1_rand
attr datetime 20221127-16:03:21
attr datetimef 20221127-160321
attr experiment k_MM1_rand
attr inifile omnetpp.ini
attr iterationvars "$time=1.0, $num=5, $0=33434, $1=56673, $2=23567"
attr iterationvarsd time=1.0/num=5/33434/56673/23567
attr iterationvarsf time=1.0,num=5,33434,56673,23567-
attr measurement "$time=1.0, $num=5, $0=33434, $1=56673, $2=23567"
attr network randkMM1
attr processid 5740
attr repetition 3
attr replication #3
attr resultdir results
attr runnumber 7
attr seedset 7
itervar num 5
itervar time 1.0
config description "MM1 module k-times random"
config network randkMM1
config **.source.interArrivalTime "truncnormal(0.5s, 1.5s)"
config **.serviceTime 1.0s
config **.c 5
config **.capacity 10000
config record-eventlog false
config **.scalar-recording true
config **.vector-recording true
config repeat 4
config seed-1-mt 33434
config seed-2-mt 56673
config seed-3-mt 23567
config output-vector-file k_MM1_rand-5-1.0-results/3.vec
config output-scalar-file k_MM1_rand-5-1.0-results/3.sca

vector 0 randkMM1.mm1[1] queueLength:vector ETV
attr interpolationmode none
attr recordingmode vector
attr title "queue length"
vector 1 randkMM1.mm1[1] util:vector ETV
attr interpolationmode none
attr recordingmode vector
attr title resources
vector 2 randkMM1.mm1[3] util:vector ETV
attr interpolationmode none
attr recordingmode vector
attr title resources
vector 3 randkMM1.mm1[2] queueLength:vector ETV
attr interpolationmode none
attr recordingmode vector
attr title "queue length"
vector 4 randkMM1.mm1[2] util:vector ETV
attr interpolationmode none
attr recordingmode vector
attr title resources
vector 5 randkMM1.mm1[4] util:vector ETV
attr interpolationmode none
attr recordingmode vector
attr title resources
vector 6 randkMM1.mm1[0] util:vector ETV
attr interpolationmode none
attr recordingmode vector
attr title resources
vector 7 randkMM1.mm1[0] queueLength:vector ETV
attr interpolationmode none
attr recordingmode vector
attr title "queue length"
vector 8 randkMM1.mm1[4] queueLength:vector ETV
attr interpolationmode none
attr recordingmode vector
attr title "queue length"
vector 9 randkMM1.mm1[3] queueLength:vector ETV
attr interpolationmode none
attr recordingmode vector
attr title "queue length"
0	5	10	1
0	9	10.584809102375	2
0	11	11	1
0	17	12	0
0	23	12.681089134047	1
0	25	13	0
0	71	18.747450457818	1
0	77	19.747450457818	0
0	208	35.62281660828	1
0	209	36.3602393077	0
0	312	49.023208557944	1
0	313	49.167722695018	0
0	325	49.990321477448	1
0	327	50.167722695018	0
0	435	64.969828819793	1
0	445	65.804972509055	0
0	751	97.987368570759	1
0	753	98.013436938719	0
0	1000	132.769583600619	1
0	1004	133.769583600619	0
0	1028	137.153134633134	1
0	1032	137.865284340288	2
0	1034	138.153134633134	1
0	1040	138.449281508013	2
0	1048	138.912657013294	3
0	1050	139.153134633134	2
0	1064	140.153134633134	1
0	1078	141.153134633134	0
0	1204	156.93562485972	1
0	1205	157.93562485972	0
0	1308	176.100109030298	1
0	1310	176.725038373729	0
0	1450	191.09954105877	1
0	1451	191.09954105877	2
0	1456	191.106923390731	3
0	1457	191.182501863545	2
0	1463	192.182501863545	1
0	1469	193.182501863545	0
0	1581	205.4294480847	1
0	1592	206.067144447816	0
0	1603	206.364509382145	1
0	1604	206.364509382145	2
0	1613	207.067144447816	1
0	1625	208.067144447816	0
0	1632	208.153313087009	1
0	1644	209.067144447816	0
0	1696	212.918133409409	1
0	1705	213.918133409409	0
0	1763	222.786066790034	1
0	1766	223.217606458904	0
0	1945	247.172211863857	1
0	1948	247.242609374485	0
0	1974	252.180655699409	1
0	1975	253.180655699409	0
0	1982	253.718765764696	1
0	1983	254.180655699409	0
0	2007	257.063370120992	1
0	2008	258.063370120992	0
0	2018	259.412812005214	1
0	2024	260.412812005214	0
0	2045	262.605608869393	1
0	2052	263.605608869393	0
0	2058	264.47168071932	1
0	2059	264.47168071932	2
0	2064	264.563551086642	3
0	2070	264.605608869393	2
0	2079	265.605608869393	1
0	2090	266.605608869393	0
0	2102	267.287817169987	1
0	2103	267.287817169987	2
0	2104	267.605608869393	1
0	2110	268.141870176051	2
0	2111	268.141870176051	3
0	2112	268.605608869393	2
0	2130	269.605608869393	1
0	2150	270.605608869393	0
0	2275	285.139523758465	1
0	2278	285.361908805525	0
0	2469	311.492265771132	1
0	2470	312.492265771132	0
0	2656	345.491087111646	1
0	2662	346.491087111646	0
0	2674	347.195049501625	1
0	2676	347.491087111646	0
0	2716	353.082576543135	1
0	2718	353.935920654428	0
0	2781	367.614780995541	1
0	2784	368.254676799066	0
0	2814	370.695771547803	1
0	2816	371.164100861435	0
0	2826	371.457502487607	1
0	2827	372.164100861435	0
0	2837	372.41234142191	1
0	2841	373.164100861435	0
0	3519	462.662211802755	1
0	3528	463.662211802755	0
0	3551	466.403826550977	1
0	3553	466.562766150832	0
0	3684	480.263491862527	1
0	3686	480.886883527051	0
0	3695	481.010902751251	1
0	3699	481.199175638788	2
0	3702	481.886883527051	1
0	3715	482.886883527051	0
0	3822	496.553723315556	1
0	3826	496.919030235448	2
0	3828	497.553723315556	1
0	3837	498.340075514577	2
0	3839	498.553723315556	1
0	3845	498.566111671719	2
0	3850	499.553723315556	1
0	3861	500.553723315556	0
0	3881	502.403412312893	1
0	3884	503.185192379983	0
0	3892	504.062446880768	1
0	3895	504.185192379983	0
0	3914	508.39543613789	1
0	3915	508.39543613789	2
0	3917	508.456963565278	1
0	3922	509.456963565278	0
0	4337	556.496653706484	1
0	4345	556.930161606922	0
0	4370	560.397407296455	1
0	4372	560.71423029346	0
0	4471	576.442927517033	1
0	4475	577.317488735611	2
0	4477	577.442927517033	1
0	4488	578.442927517033	0
0	4494	579.28596441192	1
0	4499	579.442927517033	0
0	4508	580.287072746164	1
0	4513	580.442927517033	0
0	4619	596.385967838938	1
0	4624	597.296614121044	2
0	4626	597.344157761929	1
0	4637	598.344157761929	0
0	5092	654.768981757807	1
0	5099	655.768981757807	0
0	5175	665.713920420415	1
0	5184	666.480259565137	2
0	5186	666.713920420415	1
0	5200	667.713920420415	0
0	5388	685.016928638369	1
0	5390	685.677934222303	0
0	5399	686.016086184738	1
0	5408	686.428574078181	2
0	5409	686.677934222303	1
0	5418	687.677934222303	0
0	5424	688.107699288128	1
0	5431	688.677934222303	0
0	5441	689.296542818903	1
0	5445	689.677934222303	0
0	5636	710.245598954063	1
0	5638	710.722915639209	0
0	5685	715.14302199192	1
0	5687	715.258650181908	0
0	5696	715.906893310792	1
0	5706	716.258650181908	0
0	5713	716.687386584803	1
0	5720	717.065907402665	2
0	5721	717.065907402665	3
0	5725	717.258650181908	2
0	5731	718.258650181908	1
0	5737	719.258650181908	0
0	5744	719.772268448094	1
0	5745	720.258650181908	0
0	5759	721.18363533238	1
0	5766	721.258650181908	0
0	6093	763.284768049733	1
0	6094	763.676423250649	0
0	6236	783.513285830343	1
0	6243	784.513285830343	0
0	6363	799.783779744394	1
0	6364	800.783779744394	0
0	6499	813.267955724373	1
0	6502	813.418791485559	0
0	6814	857.744894773973	1
0	6815	858.744894773973	0
0	6977	876.461459401363	1
0	6982	876.944029965115	0
0	7116	889.872272033129	1
0	7121	890.452997619057	2
0	7128	890.872272033129	1
0	7134	891.599287339357	2
0	7142	891.862778512125	3
0	7143	891.862778512125	4
0	7144	891.872272033129	3
0	7150	892.872272033129	2
0	7158	893.872272033129	1
0	7164	894.872272033129	0
0	7171	895.064125553081	1
0	7175	895.872272033129	0
0	7351	928.042998037659	1
0	7353	928.482854234038	0
0	7391	933.405855984632	1
0	7392	933.734337270059	0
0	7479	941.824680103944	1
0	7480	942.489445479874	0
0	7599	959.113528820478	1
0	7602	959.431779913803	0
0	7622	961.509912429314	1
0	7623	961.826805809312	0
0	7715	969.6323622431	1
0	7722	970.6323622431	0
0	7838	985.695055194513	1
0	7843	986.624054463381	0
0	7933	997.03269330585	1
0	7937	998.03269330585	0
0	8442	1068.594329222802	1
0	8443	1069.594329222802	0
0	8482	1072.767583679367	1
0	8483	1073.174675593795	0
0	8590	1083.560845433317	1
0	8596	1084.508890945005	0
0	8744	1107.358611847354	1
0	8745	1107.788194240328	0
0	8798	1114.604660883715	1
0	8801	1115.053719637031	0
0	8838	1120.645910612473	1
0	8839	1121.645910612473	0
0	8864	1125.562700983263	1
0	8867	1126.217954400161	0
0	8927	1131.728384188371	1
0	8937	1132.1187914058	0
0	8950	1132.745162558692	1
0	8951	1133.1187914058	0
0	9128	1149.265393058432	1
0	9130	1150.096780944292	0
0	9173	1153.404279108898	1
0	9174	1153.620367409391	0
0	9267	1165.650954372112	1
0	9273	1166.650954372112	0
0	9289	1168.526719545885	1
0	9290	1169.526719545885	0
0	9344	1176.405263103715	1
0	9345	1177.405263103715	0
0	10196	1287.201059149912	1
0	10205	1288.201059149912	0
0	10224	1289.846968892115	1
0	10225	1290.846968892115	0
0	10316	1304.74387212782	1
0	10321	1304.902041477239	2
0	10328	1305.25740259649	1
0	10340	1306.25740259649	0
0	10394	1312.983879717456	1
0	10401	1313.983879717456	0
0	10457	1321.503084415486	1
0	10461	1322.146327660651	0
0	10499	1327.969303565728	1
0	10505	1328.969303565728	0
0	10625	1350.770555029128	1
0	10632	1351.770555029128	0
0	10764	1369.53393007293	1
0	10767	1369.81573448901	0
0	10807	1372.651788362099	1
0	10808	1373.651788362099	0
0	10815	1374.177186720984	1
0	10816	1374.651788362099	0
0	10845	1377.259875266337	1
0	10852	1378.259875266337	0
0	11037	1399.933782951476	1
0	11047	1400.933782951476	0
0	11115	1413.794253518834	1
0	11126	1414.794253518834	0
0	11285	1431.043725622196	1
0	11286	1431.758929564119	0
0	11339	1440.954397534875	1
0	11342	1441.37487743944	0
0	11354	1441.972663146025	1
0	11358	1442.361027297226	2
0	11360	1442.37487743944	1
0	11371	1442.846021703841	2
0	11376	1443.37487743944	1
0	11385	1444.37487743944	0
0	11397	1445.170450816823	1
0	11399	1445.37487743944	0
0	11405	1445.519771956655	1
0	11410	1446.37487743944	0
0	11596	1468.584449469559	1
0	11600	1469.584449469559	0
0	11607	1469.808406183026	1
0	11608	1470.584449469559	0
0	12149	1541.509778919566	1
0	12155	1542.509778919566	0
0	12182	1545.978316846403	1
0	12188	1546.978316846403	0
0	12615	1604.040511733518	1
0	12622	1604.872286300133	0
0	12637	1605.524739195791	1
0	12639	1605.872286300133	0
0	12649	1606.431592667226	1
0	12653	1606.872286300133	0
0	12718	1615.82401462845	1
0	12722	1616.82401462845	0
0	12728	1617.097609872183	1
0	12735	1617.82401462845	0
0	12858	1631.849827017034	1
0	12860	1631.877666993789	0
0	12871	1632.859155650778	1
0	12873	1632.877666993789	0
0	13029	1650.077521371493	1
0	13030	1651.077521371493	0
0	13077	1655.335995441864	1
0	13080	1655.990827222962	0
0	13184	1666.091621258441	1
0	13191	1666.613506884726	0
0	13227	1671.002750784482	1
0	13238	1672.002750784482	0
0	13279	1676.219403860559	1
0	13286	1676.978592714603	2
0	13287	1676.978592714603	3
0	13288	1677.219403860559	2
0	13291	1678.219403860559	1
0	13297	1678.590846626486	2
0	13298	1678.590846626486	3
0	13299	1679.219403860559	2
0	13307	1680.219403860559	1
0	13321	1681.219403860559	0
0	13346	1683.386301961458	1
0	13348	1683.822918471436	0
0	13408	1689.106941337369	1
0	13409	1689.251312788765	0
0	13418	1690.087461694905	1
0	13423	1690.251312788765	0
0	13430	1690.539085830789	1
0	13434	1691.251312788765	0
0	13457	1693.106769501929	1
0	13465	1693.436965779695	0
0	13537	1707.738785557782	1
0	13544	1708.738785557782	0
0	13683	1727.499023579651	1
0	13685	1727.756969611239	0
0	13810	1743.833556975634	1
0	13816	1744.833556975634	0
0	14096	1784.379658958674	1
0	14097	1785.379658958674	0
0	14188	1797.012084254017	1
0	14191	1797.717593232335	0
0	14375	1821.046676089652	1
0	14377	1821.738247138801	0
0	14474	1836.613459756262	1
0	14491	1837.381370761672	0
0	14622	1849.993733886135	1
0	14630	1850.977779068036	0
0	14815	1872.807154148304	1
0	14816	1872.807154148304	2
0	14818	1873.583601023356	1
0	14823	1874.583601023356	0
0	14830	1875.255859184188	1
0	14835	1875.299198605864	2
0	14836	1875.583601023356	1
0	14846	1876.265634613262	2
0	14850	1876.583601023356	1
0	14861	1877.583601023356	0
0	14867	1878.224467954651	1
0	14872	1878.583601023356	0
0	15047	1904.759280609981	1
0	15059	1905.759280609981	0
0	15145	1916.935973070866	1
0	15147	1917.016937499184	0
0	15204	1922.699861516092	1
0	15213	1923.699861516092	0
0	15317	1934.017688062891	1
0	15318	1935.017688062891	0
0	15347	1938.475373667784	1
0	15356	1939.475373667784	0
0	15629	1986.666105530667	1
0	15632	1986.886612699118	0
0	15854	2014.11090190799	1
0	15862	2014.226771220785	0
0	15928	2018.492251668355	1
0	15929	2018.492251668355	2
0	15931	2018.829041906656	1
0	15947	2019.829041906656	0
0	16085	2034.419318381147	1
0	16087	2035.005282795755	0
0	16164	2042.874762797139	1
0	16165	2043.874762797139	0
0	16405	2072.348897539188	1
0	16407	2072.826916362626	0
0	16448	2074.983306551354	1
0	16450	2075.36434559106	0
0	16608	2092.502579216419	1
0	16609	2092.502579216419	2
0	16610	2093.220867516774	1
0	16619	2093.615601315777	2
0	16621	2094.220867516774	1
0	16627	2095.220867516774	0
0	16840	2115.080375890918	1
0	16849	2115.813471583218	2
0	16854	2116.080375890918	1
0	16866	2117.080375890918	0
0	16872	2117.27053826542	1
0	16877	2118.080375890918	0
0	17104	2143.554434127581	1
0	17111	2144.554434127581	0
0	17137	2148.851054898621	1
0	17138	2148.912065342203	0
0	17367	2177.828232214199	1
0	17374	2178.615858989787	0
0	17445	2187.020626553329	1
0	17449	2188.020626553329	0
0	17496	2194.943902853015	1
0	17505	2195.542483985836	2
0	17507	2195.545788825862	1
0	17518	2196.545788825862	0
0	17649	2213.553430924831	1
0	17655	2214.553430924831	0
0	17662	2214.794434487916	1
0	17669	2215.553430924831	0
0	17768	2224.214528854545	1
0	17775	2225.051942866063	0
0	17945	2249.245441371964	1
0	17952	2250.00981069615	0
0	18061	2266.999998777073	1
0	18062	2267.224426282686	0
0	18072	2267.546609755339	1
0	18076	2268.224426282686	0
0	18176	2280.007307209546	1
0	18178	2280.156860543501	0
0	18506	2324.42563070866	1
0	18513	2325.256819499332	0
0	18577	2336.622734263175	1
0	18580	2336.795580164129	0
0	18693	2348.737916843332	1
0	18705	2349.703874823257	0
0	18784	2360.887243326709	1
0	18796	2361.887243326709	0
0	18883	2371.47587965335	1
0	18887	2372.358542500309	0
0	18974	2382.554278430878	1
0	18976	2382.924874200873	0
0	19035	2393.391930013567	1
0	19041	2394.391930013567	0
0	19183	2407.231323068246	1
0	19188	2407.297876658559	2
0	19189	2407.797140296273	1
0	19198	2408.154193812581	2
0	19199	2408.154193812581	3
0	19206	2408.797140296273	2
0	19209	2409.797140296273	1
0	19216	2409.889614869976	2
0	19217	2410.797140296273	1
0	19227	2411.770094701224	2
0	19228	2411.797140296273	1
0	19234	2412.797140296273	0
0	19241	2413.770731737281	1
0	19242	2413.797140296273	0
0	19248	2414.512185250807	1
0	19253	2414.797140296273	0
0	19290	2420.598630420771	1
0	19295	2421.468094965987	0
0	19332	2426.926791812844	1
0	19333	2427.926791812844	0
0	19463	2449.511197347447	1
0	19476	2450.240908395045	0
0	19672	2474.251451316834	1
0	19682	2474.788439902069	2
0	19684	2475.046950533522	1
0	19693	2476.046950533522	0
0	20036	2514.631501672236	1
0	20042	2515.631501672236	0
0	20195	2535.001490583816	1
0	20196	2535.711805938532	0
0	20206	2536.421222515384	1
0	20207	2536.711805938532	0
0	20381	2557.386816689032	1
0	20388	2557.55213650422	0
0	20553	2581.431106950968	1
0	20554	2582.431106950968	0
0	20630	2596.511348307197	1
0	20641	2597.511348307197	0
0	21179	2661.207898455705	1
0	21189	2662.207898455705	0
0	21272	2674.143964740601	1
0	21274	2674.710498282606	0
0	21405	2692.957811760202	1
0	21411	2693.871716024138	0
0	21713	2732.892980820698	1
0	21714	2733.055557539028	0
0	21768	2744.507438524767	1
0	21769	2744.62886451707	0
0	21790	2747.815779890316	1
0	21792	2748.33312473549	0
0	21905	2763.551519933317	1
0	21906	2763.92356175458	0
0	21932	2766.898237706256	1
0	21944	2767.631923454712	0
0	21956	2768.038478418179	1
0	21964	2768.631923454712	0
0	21973	2769.327928012113	1
0	21978	2769.631923454712	0
0	21989	2769.828682325572	1
0	21990	2769.828682325572	2
0	21997	2770.631923454712	1
0	22006	2771.631923454712	0
0	22012	2772.609344390014	1
0	22013	2772.609344390014	2
0	22014	2772.631923454712	1
0	22017	2773.631923454712	0
0	22027	2777.494941390556	1
0	22033	2778.494941390556	0
0	22046	2778.613967831743	1
0	22047	2779.494941390556	0
0	22302	2815.315569246593	1
0	22308	2816.315569246593	0
0	22412	2833.654907204167	1
0	22413	2834.654907204167	0
0	22425	2834.856285076846	1
0	22426	2835.654907204167	0
0	22539	2848.680576952104	1
0	22542	2849.061777086432	0
0	22627	2855.414659164816	1
0	22636	2856.312477619571	0
0	22774	2871.424740556174	1
0	22779	2871.966101755685	0
0	22835	2877.661586346219	1
0	22844	2878.661586346219	0
0	22928	2887.111150024976	1
0	22935	2888.111150024976	0
0	22942	2888.968004965004	1
0	22949	2889.111150024976	0
0	23182	2917.23816298532	1
0	23183	2918.23816298532	0
0	23189	2918.897937710406	1
0	23191	2919.23816298532	0
0	23286	2933.215221638712	1
0	23287	2933.306973093418	0
0	23307	2935.979772287856	1
0	23309	2936.939212071287	0
0	23340	2939.130327104216	1
0	23342	2940.064681075797	0
0	23660	2978.051877609152	1
0	23661	2978.202097979248	0
0	23787	2996.609216864396	1
0	23788	2997.609216864396	0
0	23819	3002.559034973349	1
0	23821	3002.653539171771	0
0	24094	3030.979905370783	1
0	24095	3031.123266015924	0
0	24138	3034.827982345556	1
0	24139	3034.9561563216	0
0	24309	3052.722545673287	1
0	24316	3053.722545673287	0
0	24322	3054.719967213394	1
0	24324	3054.722545673287	0
0	24426	3068.259896168452	1
0	24427	3068.259896168452	2
0	24428	3068.452009317108	1
0	24437	3069.452009317108	0
0	24721	3113.887645264762	1
0	24728	3114.81102131232	0
0	24741	3115.494196519294	1
0	24742	3115.81102131232	0
0	24953	3145.661517295222	1
0	24954	3146.661517295222	0
0	25001	3151.831483754253	1
0	25003	3152.172077832	0
0	25239	3191.839664193347	1
0	25240	3192.839664193347	0
0	25386	3210.751171825139	1
0	25387	3210.751171825139	2
0	25389	3211.455832358704	1
0	25404	3212.455832358704	0
0	25734	3255.16216557914	1
0	25735	3256.16216557914	0
0	25742	3256.887970495367	1
0	25743	3257.16216557914	0
0	25833	3271.06092096064	1
0	25837	3271.380618451735	2
0	25847	3271.895485929163	3
0	25849	3272.06092096064	2
0	25861	3273.06092096064	1
0	25867	3274.06092096064	0
0	25879	3275.045823805097	1
0	25880	3275.06092096064	0
0	25922	3277.705235601947	1
0	25923	3277.705235601947	2
0	25929	3278.126837577851	1
0	25941	3279.126837577851	0
0	26075	3296.495647663799	1
0	26085	3297.132039888122	2
0	26091	3297.495647663799	1
0	26103	3298.495647663799	0
0	26115	3299.249152725194	1
0	26117	3299.495647663799	0
0	26197	3306.465410944732	1
0	26200	3306.814925568756	0
0	26299	3317.333821874462	1
0	26301	3317.999366485186	0
0	26465	3337.072376033674	1
0	26473	3337.446426267451	2
0	26477	3338.072376033674	1
0	26483	3339.072376033674	0
0	26510	3340.734812418062	1
0	26518	3341.541717342433	0
0	26960	3404.684022148199	1
0	26972	3405.684022148199	0
0	27333	3467.346645110476	1
0	27340	3468.19569416735	0
0	27350	3468.223748163609	1
0	27357	3469.19569416735	0
0	27549	3492.483296690149	1
0	27550	3493.483296690149	0
0	27616	3499.491083881469	1
0	27619	3499.930052358879	0
0	27637	3501.259803900504	1
0	27638	3502.259803900504	0
0	27648	3503.739178986626	1
0	27654	3504.739178986626	0
0	27817	3525.174008366352	1
0	27818	3525.174008366352	2
0	27819	3525.447328808092	1
0	27825	3526.447328808092	0
0	27873	3532.062622946923	1
0	27880	3532.829236934057	0
0	28126	3559.413280443809	1
0	28127	3560.392522585142	0
0	28224	3569.105360048551	1
0	28227	3569.569207626633	0
0	28235	3570.452972627291	1
0	28236	3570.452972627291	2
0	28238	3570.569207626633	1
0	28248	3571.569207626633	0
0	28401	3591.688185831133	1
0	28402	3592.280990125614	0
1	11	11	1
1	17	12	1
1	25	13	1
1	36	14	1
1	62	17.711466973127	1
1	77	19.747450457818	1
1	83	20.747450457818	1
1	118	22.70815865831	1
1	160	27.806518550219	1
1	171	31.342646352793	1
1	209	36.3602393077	1
1	218	37.3602393077	1
1	293	47.785017756075	1
1	313	49.167722695018	1
1	327	50.167722695018	1
1	344	51.167722695018	1
1	381	56.002042186531	1
1	445	65.804972509055	1
1	460	66.804972509055	1
1	513	73.696437714399	1
1	545	77.318463506396	1
1	589	80.396061502568	1
1	605	82.194105475284	1
1	633	85.2184218184	1
1	650	88.057340029395	1
1	753	98.013436938719	1
1	765	99.013436938719	1
1	776	102.541823055735	1
1	845	111.615069352805	1
1	858	112.688478397342	1
1	902	115.612170449222	1
1	924	118.174207800575	1
1	1004	133.769583600619	1
1	1015	134.769583600619	1
1	1034	138.153134633134	1
1	1050	139.153134633134	1
1	1064	140.153134633134	1
1	1078	141.153134633134	1
1	1092	142.153134633134	1
1	1184	152.959616870687	1
1	1205	157.93562485972	1
1	1213	158.93562485972	1
1	1261	166.505630979626	1
1	1282	171.279251122321	1
1	1293	172.290342436585	1
1	1310	176.725038373729	1
1	1321	177.725038373729	1
1	1347	179.53361901029	1
1	1393	183.750177302304	1
1	1430	188.128992156537	1
1	1457	191.182501863545	1
1	1463	192.182501863545	1
1	1469	193.182501863545	1
1	1477	194.182501863545	1
1	1540	202.120952334701	1
1	1592	206.067144447816	1
1	1613	207.067144447816	1
1	1625	208.067144447816	1
1	1644	209.067144447816	1
1	1661	210.067144447816	1
1	1705	213.918133409409	1
1	1714	214.918133409409	1
1	1766	223.217606458904	1
1	1775	224.217606458904	1
1	1812	226.423545465372	1
1	1851	229.75708295024	1
1	1948	247.242609374485	1
1	1956	248.242609374485	1
1	1975	253.180655699409	1
1	1983	254.180655699409	1
1	1994	255.180655699409	1
1	2008	258.063370120992	1
1	2011	259.063370120992	1
1	2024	260.412812005214	1
1	2033	261.412812005214	1
1	2052	263.605608869393	1
1	2070	264.605608869393	1
1	2079	265.605608869393	1
1	2090	266.605608869393	1
1	2104	267.605608869393	1
1	2112	268.605608869393	1
1	2130	269.605608869393	1
1	2150	270.605608869393	1
1	2159	271.605608869393	1
1	2193	273.993203418344	1
1	2211	276.909921712685	1
1	2245	280.185922818801	1
1	2258	282.140327647634	1
1	2278	285.361908805525	1
1	2286	286.361908805525	1
1	2313	291.568375471145	1
1	2327	292.859075674827	1
1	2377	298.280935263386	1
1	2405	302.445503617881	1
1	2427	304.174689073213	1
1	2470	312.492265771132	1
1	2473	313.492265771132	1
1	2492	317.25586886271	1
1	2535	324.141641303627	1
1	2558	326.467654879895	1
1	2602	335.955696887137	1
1	2635	341.030854766323	1
1	2662	346.491087111646	1
1	2676	347.491087111646	1
1	2682	348.491087111646	1
1	2702	352.371393159319	1
1	2718	353.935920654428	1
1	2724	354.935920654428	1
1	2784	368.254676799066	1
1	2795	369.254676799066	1
1	2816	371.164100861435	1
1	2827	372.164100861435	1
1	2841	373.164100861435	1
1	2857	374.164100861435	1
1	2955	386.980455934075	1
1	2966	388.410012788286	1
1	2999	394.470741529728	1
1	3021	397.317770236631	1
1	3085	404.396331920281	1
1	3124	406.716398353839	1
1	3149	408.032347234637	1
1	3175	413.501364220562	1
1	3207	417.96739693939	1
1	3257	423.638443852333	1
1	3318	436.12335050938	1
1	3383	449.085410119335	1
1	3416	452.230820446653	1
1	3443	455.04642187117	1
1	3460	456.328284098603	1
1	3488	460.002086429781	1
1	3510	461.911969688797	1
1	3528	463.662211802755	1
1	3537	464.662211802755	1
1	3553	466.562766150832	1
1	3567	467.562766150832	1
1	3619	475.20948957531	1
1	3661	478.635610860048	1
1	3686	480.886883527051	1
1	3702	481.886883527051	1
1	3715	482.886883527051	1
1	3724	483.886883527051	1
1	3769	487.860194807147	1
1	3802	493.340909093916	1
1	3812	494.625179869282	1
1	3828	497.553723315556	1
1	3839	498.553723315556	1
1	3850	499.553723315556	1
1	3861	500.553723315556	1
1	3867	501.553723315556	1
1	3884	503.185192379983	1
1	3895	504.185192379983	1
1	3901	505.185192379983	1
1	3917	508.456963565278	1
1	3922	509.456963565278	1
1	3930	510.456963565278	1
1	3986	517.525291834277	1
1	4115	535.901014452174	1
1	4176	541.81792178237	1
1	4208	544.729304964398	1
1	4302	553.13258390936	1
1	4319	555.491504031415	1
1	4345	556.930161606922	1
1	4351	557.930161606922	1
1	4372	560.71423029346	1
1	4384	561.71423029346	1
1	4477	577.442927517033	1
1	4488	578.442927517033	1
1	4499	579.442927517033	1
1	4513	580.442927517033	1
1	4519	581.442927517033	1
1	4549	586.811748702448	1
1	4568	591.232683318487	1
1	4593	593.966950517179	1
1	4604	595.499971836008	1
1	4626	597.344157761929	1
1	4637	598.344157761929	1
1	4640	599.344157761929	1
1	4692	604.848903125557	1
1	4780	615.569740429841	1
1	4854	626.792270521625	1
1	4890	632.557537166386	1
1	4920	637.391970542278	1
1	4946	640.371541735146	1
1	4957	641.563120844602	1
1	4972	644.06553356816	1
1	5010	646.87639767974	1
1	5056	651.602551677061	1
1	5099	655.768981757807	1
1	5112	656.768981757807	1
1	5155	661.533334354077	1
1	5165	663.567672808817	1
1	5186	666.713920420415	1
1	5200	667.713920420415	1
1	5212	668.713920420415	1
1	5220	670.009427016542	1
1	5259	673.956729692004	1
1	5297	676.772085483858	1
1	5308	678.600656251287	1
1	5358	682.982690066112	1
1	5375	684.665294794244	1
1	5390	685.677934222303	1
1	5409	686.677934222303	1
1	5418	687.677934222303	1
1	5431	688.677934222303	1
1	5445	689.677934222303	1
1	5454	690.677934222303	1
1	5462	692.389810830053	1
1	5483	694.166277046097	1
1	5517	699.12331268439	1
1	5561	702.766628585909	1
1	5582	705.871634004248	1
1	5638	710.722915639209	1
1	5650	711.722915639209	1
1	5687	715.258650181908	1
1	5706	716.258650181908	1
1	5725	717.258650181908	1
1	5731	718.258650181908	1
1	5737	719.258650181908	1
1	5745	720.258650181908	1
1	5766	721.258650181908	1
1	5775	722.258650181908	1
1	5792	724.67296167251	1
1	5804	726.019271424842	1
1	5852	731.495732193817	1
1	5877	733.569467072053	1
1	5913	738.65262578072	1
1	5968	746.260215200129	1
1	6032	754.213089283607	1
1	6072	762.175262846997	1
1	6094	763.676423250649	1
1	6103	764.676423250649	1
1	6127	767.826648326925	1
1	6145	770.140388285627	1
1	6178	776.194603591066	1
1	6210	778.772421617513	1
1	6222	781.374679656966	1
1	6243	784.513285830343	1
1	6251	785.513285830343	1
1	6276	789.319194619012	1
1	6288	790.475801361468	1
1	6354	799.490559826847	1
1	6364	800.783779744394	1
1	6367	801.783779744394	1
1	6412	804.617189877936	1
1	6502	813.418791485559	1
1	6513	814.418791485559	1
1	6661	839.670727526882	1
1	6694	844.523564658541	1
1	6705	846.519082005514	1
1	6721	847.551727947411	1
1	6760	851.751767822987	1
1	6771	852.968332767615	1
1	6782	854.071782374972	1
1	6793	855.717382645095	1
1	6804	856.922295701251	1
1	6815	858.744894773973	1
1	6818	859.744894773973	1
1	6827	860.888768519899	1
1	6848	863.051127200076	1
1	6913	869.151043676029	1
1	6948	871.95460776515	1
1	6982	876.944029965115	1
1	6991	877.944029965115	1
1	7023	880.805096243827	1
1	7069	885.592702553203	1
1	7085	888.071912898454	1
1	7101	889.221317026089	1
1	7128	890.872272033129	1
1	7144	891.872272033129	1
1	7150	892.872272033129	1
1	7158	893.872272033129	1
1	7164	894.872272033129	1
1	7175	895.872272033129	1
1	7181	896.872272033129	1
1	7200	900.315400607015	1
1	7217	901.407299386463	1
1	7245	907.17032140445	1
1	7255	908.84154930132	1
1	7278	912.980113587954	1
1	7293	915.474547508615	1
1	7321	923.780297147908	1
1	7353	928.482854234038	1
1	7362	929.482854234038	1
1	7392	933.734337270059	1
1	7406	934.734337270059	1
1	7462	939.697870126809	1
1	7480	942.489445479874	1
1	7489	943.489445479874	1
1	7549	951.890753176198	1
1	7602	959.431779913803	1
1	7608	960.431779913803	1
1	7623	961.826805809312	1
1	7637	962.826805809312	1
1	7661	964.915860222576	1
1	7690	968.23308961917	1
1	7722	970.6323622431	1
1	7738	971.6323622431	1
1	7794	980.279828120953	1
1	7806	982.95555632775	1
1	7827	985.46676798651	1
1	7843	986.624054463381	1
1	7852	987.624054463381	1
1	7920	996.867867878722	1
1	7937	998.03269330585	1
1	7940	999.03269330585	1
1	7971	1005.505776095572	1
1	8019	1014.870348394072	1
1	8048	1019.188960417505	1
1	8075	1023.039006119955	1
1	8088	1024.087870156588	1
1	8125	1029.046080154912	1
1	8191	1038.833576753158	1
1	8223	1044.083990458278	1
1	8250	1048.173960841975	1
1	8267	1049.441112899733	1
1	8346	1058.097778084277	1
1	8443	1069.594329222802	1
1	8451	1070.594329222802	1
1	8483	1073.174675593795	1
1	8505	1074.174675593795	1
1	8542	1077.915174178423	1
1	8564	1080.161014035491	1
1	8575	1081.904118820387	1
1	8596	1084.508890945005	1
1	8608	1085.508890945005	1
1	8619	1087.538153369172	1
1	8657	1091.761903719019	1
1	8680	1096.485669390864	1
1	8708	1103.833968233593	1
1	8729	1105.994876296548	1
1	8745	1107.788194240328	1
1	8751	1108.788194240328	1
1	8768	1111.028371516003	1
1	8801	1115.053719637031	1
1	8814	1116.053719637031	1
1	8839	1121.645910612473	1
1	8847	1122.645910612473	1
1	8867	1126.217954400161	1
1	8875	1127.217954400161	1
1	8884	1128.282684122066	1
1	8937	1132.1187914058	1
1	8951	1133.1187914058	1
1	8960	1134.1187914058	1
1	9089	1146.297801515276	1
1	9111	1148.777620698162	1
1	9130	1150.096780944292	1
1	9139	1151.096780944292	1
1	9153	1152.338177964254	1
1	9174	1153.620367409391	1
1	9183	1154.620367409391	1
1	9191	1157.214183131357	1
1	9224	1160.534537038244	1
1	9273	1166.650954372112	1
1	9282	1167.650954372112	1
1	9290	1169.526719545885	1
1	9298	1170.526719545885	1
1	9334	1175.707189170822	1
1	9345	1177.405263103715	1
1	9348	1178.405263103715	1
1	9357	1179.461320607991	1
1	9383	1182.681302198762	1
1	9411	1184.26021493685	1
1	9422	1186.294194211675	1
1	9509	1194.464775791165	1
1	9577	1201.201024629284	1
1	9609	1207.313672178834	1
1	9813	1234.501407002247	1
1	9829	1235.790536371774	1
1	9841	1237.027521889175	1
1	9862	1243.616833823071	1
1	9928	1252.807242140039	1
1	10010	1264.13075070674	1
1	10109	1276.953036349719	1
1	10126	1278.974381642873	1
1	10179	1286.008418964203	1
1	10205	1288.201059149912	1
1	10214	1289.201059149912	1
1	10225	1290.846968892115	1
1	10228	1291.846968892115	1
1	10280	1300.42024160129	1
1	10291	1303.51475588077	1
1	10328	1305.25740259649	1
1	10340	1306.25740259649	1
1	10349	1307.25740259649	1
1	10362	1311.208238450675	1
1	10401	1313.983879717456	1
1	10404	1314.983879717456	1
1	10439	1320.704387615031	1
1	10461	1322.146327660651	1
1	10470	1323.146327660651	1
1	10505	1328.969303565728	1
1	10519	1329.969303565728	1
1	10588	1343.642289188922	1
1	10600	1346.214019363134	1
1	10632	1351.770555029128	1
1	10635	1352.770555029128	1
1	10644	1354.623081993927	1
1	10676	1358.271749258495	1
1	10767	1369.81573448901	1
1	10786	1370.81573448901	1
1	10808	1373.651788362099	1
1	10816	1374.651788362099	1
1	10827	1375.651788362099	1
1	10852	1378.259875266337	1
1	10860	1379.259875266337	1
1	10880	1381.377339221233	1
1	10973	1393.536473754209	1
1	10995	1396.343306236538	1
1	11012	1398.02296089235	1
1	11047	1400.933782951476	1
1	11053	1401.933782951476	1
1	11062	1403.94811033265	1
1	11126	1414.794253518834	1
1	11138	1415.794253518834	1
1	11195	1420.596620342143	1