version 3
run MMc-4-20221127-11:38:40-7588
attr configname MMc
attr datetime 20221127-11:38:40
attr datetimef 20221127-113840
attr experiment MMc
attr inifile omnetpp.ini
attr iterationvars "$mean=uniform(0.5s, 1.5s), $dev=0.5*(uniform(0.5s, 1.5s)), $time=1.0, $num=3, $0=53542, $1=75335, $2=34542"
attr iterationvarsd mean=uniform(0.5s,_1.5s)/dev=0.5#2a(uniform(0.5s,_1.5s))/time=1.0/num=3/53542/75335/34542
attr iterationvarsf mean=uniform(0.5s,_1.5s),dev=0.5#2a(uniform(0.5s,_1.5s)),time=1.0,num=3,53542,75335,34542-
attr measurement "$mean=uniform(0.5s, 1.5s), $dev=0.5*(uniform(0.5s, 1.5s)), $time=1.0, $num=3, $0=53542, $1=75335, $2=34542"
attr network MMc
attr processid 7588
attr repetition 0
attr replication #0
attr resultdir results
attr runnumber 4
attr seedset 4
itervar dev "0.5*(uniform(0.5s, 1.5s))"
itervar mean "uniform(0.5s, 1.5s)"
itervar num 3
itervar time 1.0
config description "MMc module"
config network MMc
config MMc.source.interArrivalTime "truncnormal(uniform(0.5s, 1.5s), 0.5*(uniform(0.5s, 1.5s)))"
config MMc.mmc.serviceTime 1.0s
config MMc.mmc.c 3
config MMc.mmc.capacity 10000
config record-eventlog false
config **.scalar-recording true
config **.vector-recording true
config repeat 4
config seed-1-mt 53542
config seed-2-mt 75335
config seed-3-mt 34542
config output-vector-file MMc-3-1.0-results/0.vec
config output-scalar-file MMc-3-1.0-results/0.sca

vector 0 MMc.mmc queueLength:vector ETV
attr interpolationmode none
attr recordingmode vector
attr title "queue length"
vector 1 MMc.mmc util:vector ETV
attr interpolationmode none
attr recordingmode vector
attr title resources
0	0	0	0
0	13	12.519859091859	1
0	14	12.878600113022	0
0	34	15.672534165445	1
0	35	16.422333129121	0
0	45	17.185745827964	1
0	46	17.185745827964	2
0	47	17.422333129121	1
0	49	17.80130616058	0
0	55	18.077809396295	1
0	56	18.422333129121	0
0	59	18.529974392982	1
0	60	18.529974392982	2
0	61	18.80130616058	1
0	63	19.077809396295	0
0	69	19.61052979811	1
0	70	19.80130616058	0
0	83	22.030737407291	1
0	84	22.160074349923	0
0	90	22.777848477964	1
0	91	23.030737407291	0
0	118	27.579620951892	1
0	119	27.950509967198	0
0	139	30.822417285211	1
0	140	30.968509697151	0
0	153	32.710984308409	1
0	155	33.248042928817	2
0	156	33.248042928817	3
0	157	33.343620454308	2
0	158	33.343620454308	1
0	161	33.710984308409	0
0	164	33.994941942845	1
0	165	33.994941942845	2
0	166	34.343620454308	1
0	167	34.343620454308	0
0	209	41.249925483977	1
0	211	41.705392487367	2
0	212	41.705392487367	3
0	213	42.138070958472	2
0	214	42.138070958472	1
0	217	42.249925483977	0
0	220	42.642391099723	1
0	221	42.642391099723	2
0	222	43.138070958472	1
0	223	43.138070958472	0
0	230	43.612558218707	1
0	231	44.138070958472	0
0	237	44.573036690031	1
0	238	44.612558218707	0
0	244	45.41671601645	1
0	245	45.573036690031	0
0	265	49.540743730911	1
0	266	49.646749843397	0
0	272	50.193612078432	1
0	273	50.540743730911	0
0	286	52.29524667548	1
0	287	52.379793338667	0
0	307	56.36536875042	1
0	308	56.471385752093	0
0	335	60.831419622318	1
0	337	61.21221375713	2
0	338	61.21221375713	3
0	339	61.498752700312	2
0	340	61.498752700312	1
0	343	61.831419622318	0
0	346	62.222872636664	1
0	347	62.222872636664	2
0	348	62.498752700312	1
0	349	62.498752700312	0
0	356	63.357426514329	1
0	357	63.498752700312	0
0	370	65.65452521605	1
0	371	66.088384110672	0
0	384	68.400003718335	1
0	385	68.436934742858	0
0	391	69.037796516694	1
0	392	69.400003718335	0
0	433	77.661374491587	1
0	434	78.211527432608	0
0	454	81.009517202924	1
0	456	81.018001699507	2
0	457	81.018001699507	3
0	458	81.249661629811	2
0	459	81.249661629811	1
0	462	82.009517202924	0
0	465	82.182456544676	1
0	466	82.182456544676	2
0	467	82.249661629811	1
0	468	82.249661629811	0
0	482	84.069068634791	1
0	483	84.712402327643	0
0	489	84.740742060059	1
0	490	85.069068634791	0
0	517	90.99051305078	1
0	518	91.411541690081	0
0	531	93.461304193727	1
0	532	93.769954461528	0
0	538	94.173897522847	1
0	539	94.461304193727	0
0	552	95.943260137662	1
0	553	96.451546321152	0
0	559	96.473662679792	1
0	561	96.638753171625	2
0	562	96.638753171625	3
0	563	96.943260137662	2
0	565	97.451546321152	1
0	567	97.473662679792	0
0	573	98.104053098752	1
0	574	98.451546321152	0
0	580	98.591969364366	1
0	582	98.716497782364	2
0	583	98.716497782364	3
0	584	99.104053098752	2
0	586	99.451546321152	1
0	588	99.591969364366	0
0	615	104.271950002132	1
0	616	104.335530235875	0
0	622	104.861840501243	1
0	624	105.051957656385	2
0	625	105.051957656385	3
0	626	105.271950002132	2
0	628	105.335530235875	1
0	630	105.861840501243	0
0	643	107.747918743091	1
0	644	108.093027336181	0
0	650	108.541467875442	1
0	651	108.747918743091	0
0	671	111.613740464413	1
0	672	112.122212667738	0
0	678	112.585604953012	1
0	679	112.613740464413	0
0	692	114.925191177971	1
0	693	115.214050405493	0
0	706	116.84901352614	1
0	707	116.942737750269	0
0	713	117.743575570937	1
0	714	117.84901352614	0
0	720	118.296347942236	1
0	721	118.743575570937	0
0	727	119.205016938806	1
0	728	119.296347942236	0
0	748	122.816626014198	1
0	749	123.161504252997	0
0	783	129.410866752633	1
0	785	129.77899946246	2
0	786	129.77899946246	3
0	787	130.176841037912	2
0	788	130.176841037912	1
0	791	130.410866752633	0
0	804	132.435979790258	1
0	805	132.992738275909	0
0	811	133.385752868557	1
0	812	133.435979790258	0
0	815	133.791500280342	1
0	816	133.791500280342	2
0	817	133.992738275909	1
0	819	134.385752868557	0
0	825	134.663638799371	1
0	826	134.992738275909	0
0	829	135.035668681543	1
0	830	135.035668681543	2
0	831	135.385752868557	1
0	833	135.663638799371	0
0	839	136.126735647341	1
0	840	136.385752868557	0
0	846	137.056279874706	1
0	847	137.126735647341	0
0	867	141.191521752903	1
0	868	141.211165708995	0
0	881	143.019259139796	1
0	882	143.22984261591	0
0	909	147.181762157468	1
0	910	147.593208266666	0
0	916	147.903231915073	1
0	917	148.181762157468	0
0	958	155.059522970945	1
0	959	155.066056863111	0
0	1028	168.939229103298	1
0	1030	169.73688569711	2
0	1031	169.73688569711	3
0	1032	169.92695132395	2
0	1033	169.92695132395	1
0	1036	169.939229103298	0
0	1039	170.75079233895	1
0	1040	170.75079233895	2
0	1041	170.92695132395	1
0	1042	170.92695132395	0
0	1049	171.165312477661	1
0	1050	171.92695132395	0
0	1070	173.992649617431	1
0	1072	174.873424490966	2
0	1073	174.873424490966	3
0	1074	174.956066492044	2
0	1075	174.956066492044	1
0	1078	174.992649617431	0
0	1091	177.48624944219	1
0	1092	177.553475354491	0
0	1126	183.450855015313	1
0	1127	183.769221206579	0
0	1133	183.841508269965	1
0	1134	184.450855015313	0
0	1147	185.920119019586	1
0	1148	186.521818056371	0
0	1161	188.058296723085	1
0	1162	188.363691527774	0
0	1168	188.665084881516	1
0	1169	189.058296723085	0
0	1175	189.394342034392	1
0	1176	189.665084881516	0
0	1182	190.277348037941	1
0	1183	190.394342034392	0
0	1189	190.951282574588	1
0	1190	191.277348037941	0
0	1210	194.569740198865	1
0	1211	194.68323075361	0
0	1259	203.167772636247	1
0	1260	203.679926460742	0
0	1266	203.987476923042	1
0	1267	204.167772636247	0
0	1287	207.10300245319	1
0	1288	207.970016788532	0
0	1301	209.648817464613	1
0	1302	209.789483467738	0
0	1308	210.430739067623	1
0	1309	210.648817464613	0
0	1315	211.216276755472	1
0	1316	211.430739067623	0
0	1322	211.78345222119	1
0	1323	212.216276755472	0
0	1336	213.703797946784	1
0	1337	213.847473175458	0
0	1343	214.477329901472	1
0	1344	214.703797946784	0
0	1385	223.391749748838	1
0	1386	223.639477746826	0
0	1406	226.628813591631	1
0	1407	226.950868136519	0
0	1420	229.492233761838	1
0	1421	229.56429162808	0
0	1427	230.433066349663	1
0	1428	230.492233761838	0
0	1434	230.81830063403	1
0	1435	231.433066349663	0
0	1438	231.442946268258	1
0	1439	231.442946268258	2
0	1440	231.492233761838	1
0	1442	231.81830063403	0
0	1445	231.877121943067	1
0	1446	231.877121943067	2
0	1447	232.433066349663	1
0	1449	232.492233761838	0
0	1476	237.285361233776	1
0	1477	237.371726553886	0
0	1483	238.249331450864	1
0	1484	238.285361233776	0
0	1497	240.128392778975	1
0	1498	240.376418868175	0
0	1504	241.105648920025	1
0	1505	241.128392778975	0
0	1518	243.799154589179	1
0	1519	243.844737620544	0
0	1532	245.77695256615	1
0	1533	245.872863619526	0
0	1539	246.017564479084	1
0	1540	246.77695256615	0
0	1567	251.741485241887	1
0	1568	252.70296444363	0
0	1581	253.932732550212	1
0	1582	254.260236139253	0
0	1588	254.681797588429	1
0	1589	254.932732550212	0
0	1623	260.080945011353	1
0	1624	260.83525922957	0
0	1630	260.968910456949	1
0	1631	261.080945011353	0
0	1658	266.670544336067	1
0	1659	266.792610106803	0
0	1665	267.075334258613	1
0	1666	267.670544336067	0
0	1700	274.09624167419	1
0	1701	274.111093632851	0
0	1763	288.86063012959	1
0	1764	289.730275904192	0
0	1770	289.848770870893	1
0	1771	289.86063012959	0
0	1774	290.505699291909	1
0	1775	290.505699291909	2
0	1776	290.730275904192	1
0	1778	290.848770870893	0
0	1784	291.1461908049	1
0	1786	291.671451779679	2
0	1787	291.671451779679	3
0	1788	291.730275904192	2
0	1790	291.848770870893	1
0	1792	292.1461908049	0
0	1795	292.202296978835	1
0	1796	292.202296978835	2
0	1798	292.547672806001	3
0	1799	292.547672806001	4
0	1800	292.730275904192	3
0	1802	292.848770870893	2
0	1804	293.1461908049	1
0	1807	293.62704315379	2
0	1808	293.62704315379	3
0	1809	293.730275904192	2
0	1812	293.738413855088	3
0	1813	293.738413855088	4
0	1814	293.848770870893	3
0	1816	294.1461908049	2
0	1818	294.730275904192	1
0	1821	294.822938908753	2
0	1822	294.822938908753	3
0	1823	294.848770870893	2
0	1825	295.1461908049	1
0	1828	295.37420717926	2
0	1829	295.37420717926	3
0	1830	295.730275904192	2
0	1832	295.848770870893	1
0	1834	296.1461908049	0
0	1837	296.265284107262	1
0	1838	296.265284107262	2
0	1839	296.730275904192	1
0	1842	296.815518761318	2
0	1843	296.815518761318	3
0	1844	296.848770870893	2
0	1846	297.1461908049	1
0	1848	297.730275904192	0
0	1861	300.185691054287	1
0	1862	300.246698904483	0
0	1875	301.383690993286	1
0	1877	302.108894078129	2
0	1878	302.108894078129	3
0	1879	302.232170190088	2
0	1880	302.232170190088	1
0	1883	302.383690993286	0
0	1886	303.184293340264	1
0	1887	303.184293340264	2
0	1888	303.232170190088	1
0	1889	303.232170190088	0
0	1896	303.630021649853	1
0	1897	304.232170190088	0
0	1931	310.863565438723	1
0	1932	311.022425966936	0
0	1945	312.669529912933	1
0	1946	313.212630124482	0
0	1966	316.010262045285	1
0	1967	316.526735501865	0
0	1987	320.105218516076	1
0	1988	320.269820436497	0
0	1994	320.73233157552	1
0	1995	321.105218516076	0
0	1998	321.153008627697	1
0	1999	321.153008627697	2
0	2000	321.269820436497	1
0	2002	321.73233157552	0
0	2015	323.480677057315	1
0	2016	323.502054877045	0
0	2022	324.475039284467	1
0	2023	324.480677057315	0
0	2043	328.124278613166	1
0	2044	328.724331283412	0
0	2064	331.268734944624	1
0	2065	331.516292478629	0
0	2078	332.918495979023	1
0	2079	333.563119956381	0
0	2085	333.62487940812	1
0	2086	333.918495979023	0
0	2089	333.924836461948	1
0	2090	333.924836461948	2
0	2091	334.563119956381	1
0	2093	334.62487940812	0
0	2099	335.308893806258	1
0	2100	335.563119956381	0
0	2120	338.504390454593	1
0	2121	338.590774357186	0
0	2127	339.256507666311	1
0	2128	339.504390454593	0
0	2141	341.193002453262	1
0	2142	341.469578987392	0
0	2148	341.671109930266	1
0	2149	342.193002453262	0
0	2162	343.460335866499	1
0	2163	344.183648602079	0
0	2169	344.402154822618	1
0	2170	344.460335866499	0
0	2190	346.676045629686	1
0	2192	347.492408901896	2
0	2193	347.492408901896	3
0	2194	347.657642096998	2
0	2195	347.657642096998	1
0	2198	347.676045629686	0
0	2211	349.274955595114	1
0	2212	350.079830445567	0
0	2222	350.916221806079	1
0	2223	350.916221806079	2
0	2224	351.079830445567	1
0	2226	351.435840466605	0
0	2232	351.522841561892	1
0	2233	352.079830445567	0
0	2236	352.374000891287	1
0	2237	352.374000891287	2
0	2238	352.435840466605	1
0	2240	352.522841561892	0
0	2243	352.882954677276	1
0	2244	352.882954677276	2
0	2245	353.079830445567	1
0	2247	353.435840466605	0
0	2253	353.862319675024	1
0	2254	354.079830445567	0
0	2260	354.481915482346	1
0	2261	354.862319675024	0
0	2267	355.170884253109	1
0	2268	355.481915482346	0
0	2274	355.992857493547	1
0	2275	356.170884253109	0
0	2302	361.194156529084	1
0	2303	361.883287078704	0
0	2309	361.914851438442	1
0	2310	362.194156529084	0
0	2323	364.491304562057	1
0	2324	364.568970439073	0
0	2337	367.232224608112	1
0	2338	367.350773562385	0
0	2351	369.162567550631	1
0	2352	369.782657692544	0
0	2358	369.821571713819	1
0	2359	370.162567550631	0
0	2362	370.577239412076	1
0	2363	370.577239412076	2
0	2364	370.782657692544	1
0	2366	370.821571713819	0
0	2369	370.897741709575	1
0	2370	370.897741709575	2
0	2371	371.162567550631	1
0	2373	371.782657692544	0
0	2393	374.351161845521	1
0	2394	374.3853670843	0
0	2400	375.015732815081	1
0	2401	375.351161845521	0
0	2428	379.907404375377	1
0	2429	380.43191067748	0
0	2442	382.559311042253	1
0	2443	383.43093063453	0
0	2453	384.320596036887	1
0	2454	384.320596036887	2
0	2455	384.43093063453	1
0	2457	384.620211373706	0
0	2498	392.952938421702	1
0	2499	393.165561640163	0
0	2505	393.337595112042	1
0	2506	393.952938421702	0
0	2533	398.062175165503	1
0	2534	398.543265563446	0
0	2568	404.482963149916	1
0	2569	404.791769586456	0
0	2596	408.743541101355	1
0	2597	409.287193325724	0
0	2603	409.697207911041	1
0	2604	409.743541101355	0
0	2610	410.646543032293	1
0	2611	410.697207911041	0
0	2617	411.514687059034	1
0	2618	411.646543032293	0
0	2631	413.09045709701	1
0	2632	413.75072991939	0
0	2638	413.990200664997	1
0	2639	414.09045709701	0
0	2642	414.500459472064	1
0	2643	414.500459472064	2
0	2644	414.75072991939	1
0	2646	414.990200664997	0
0	2652	415.147898516052	1
0	2653	415.75072991939	0
0	2663	416.745629903674	1
0	2664	416.745629903674	2
0	2665	416.75072991939	1
0	2667	417.427785266739	0
0	2680	418.662666710789	1
0	2681	418.898433499198	0
0	2715	424.93167882597	1
0	2716	424.997587840784	0
0	2729	426.786354717821	1
0	2730	427.036192459852	0
0	2736	427.438877449437	1
0	2737	427.786354717821	0
0	2743	428.240301646902	1
0	2744	428.438877449437	0
0	2757	429.958847050272	1
0	2758	430.420364973573	0
0	2771	432.600044136663	1
0	2772	432.643812722402	0
0	2778	433.422020309173	1
0	2779	433.600044136663	0
0	2785	434.176773881747	1
0	2786	434.422020309173	0
0	2792	434.742647291979	1
0	2794	435.042828124261	2
0	2795	435.042828124261	3
0	2796	435.176773881747	2
0	2798	435.422020309173	1
0	2800	435.742647291979	0
0	2806	436.316964533807	1
0	2807	436.422020309173	0
0	2827	439.446977413489	1
0	2828	439.710587268762	0
0	2848	444.408742422097	1
0	2849	444.935442442074	0
0	2876	450.169082471515	1
0	2878	450.235442024937	2
0	2879	450.235442024937	3
0	2880	450.520626575056	2
0	2881	450.520626575056	1
0	2884	451.169082471515	0
0	2904	453.974363568252	1
0	2905	454.655738256172	0
0	2915	455.459445913228	1
0	2916	455.459445913228	2
0	2917	455.655738256172	1
0	2919	456.069356151067	0
0	2925	456.277831510326	1
0	2926	456.655738256172	0
0	2929	457.025452471194	1
0	2930	457.025452471194	2
0	2931	457.069356151067	1
0	2933	457.277831510326	0
0	2939	457.863333388333	1
0	2940	458.069356151067	0
0	2946	458.770021416701	1
0	2947	458.863333388333	0
0	2974	464.431702788138	1
0	2975	464.441023000517	0
0	2995	468.673942976089	1
0	2996	468.681278156373	0
0	3002	468.983320678669	1
0	3003	469.673942976089	0
0	3016	470.87287729444	1
0	3017	470.991293189609	0
0	3023	471.744021084471	1
0	3024	471.87287729444	0
0	3051	476.451724237897	1
0	3052	476.881961696408	0
0	3072	479.94493978514	1
0	3074	480.503678754247	2
0	3075	480.503678754247	3
0	3076	480.530393903719	2
0	3077	480.530393903719	1
0	3080	480.94493978514	0
0	3107	486.529138610988	1
0	3108	486.828918438661	0
0	3121	488.794523940973	1
0	3122	489.403473487033	0
0	3128	489.548168213881	1
0	3129	489.794523940973	0
0	3132	490.306026237239	1
0	3133	490.306026237239	2
0	3134	490.403473487033	1
0	3136	490.548168213881	0
0	3142	491.173882243892	1
0	3143	491.403473487033	0
0	3170	495.845293251001	1
0	3171	496.228108845153	0
0	3177	496.600489351831	1
0	3178	496.845293251001	0
0	3181	497.033864296222	1
0	3182	497.033864296222	2
0	3183	497.228108845153	1
0	3185	497.600489351831	0
0	3205	501.156896774428	1
0	3206	501.365856675095	0
0	3212	501.579625220657	1
0	3213	502.156896774428	0
0	3226	503.273972796332	1
0	3228	503.596788296766	2
0	3229	503.596788296766	3
0	3230	504.222799230274	2
0	3231	504.222799230274	1
0	3234	504.273972796332	0
0	3237	504.936974983651	1
0	3238	504.936974983651	2
0	3239	505.222799230274	1
0	3240	505.222799230274	0
0	3261	508.47629209539	1
0	3262	508.556115322569	0
0	3268	508.601388744422	1
0	3270	509.410428060566	2
0	3271	509.410428060566	3
0	3272	509.47629209539	2
0	3274	509.556115322569	1
0	3276	509.601388744422	0
0	3279	509.63623529809	1
0	3280	509.63623529809	2
0	3281	510.47629209539	1
0	3283	510.556115322569	0
0	3289	510.796597319561	1
0	3290	511.47629209539	0
0	3296	511.741241140205	1
0	3297	511.796597319561	0
0	3345	520.288970281195	1
0	3346	520.686423424583	0
0	3366	524.888901226562	1
0	3367	524.946889385897	0
0	3401	530.900331249583	1
0	3402	531.080544166979	0
0	3408	531.291963032754	1
0	3409	531.900331249583	0
0	3429	536.693857198922	1
0	3430	536.756882816061	0
0	3443	538.544836913749	1
0	3444	538.752477381221	0
0	3457	540.015775101544	1
0	3459	540.569433841521	2
0	3460	540.569433841521	3
0	3461	540.734265804027	2
0	3462	540.734265804027	1
0	3465	541.015775101544	0
0	3468	541.702103828657	1
0	3469	541.702103828657	2
0	3470	541.734265804027	1
0	3471	541.734265804027	0
0	3485	543.818175347894	1
0	3487	544.43458385294	2
0	3488	544.43458385294	3
0	3489	544.659856095825	2
0	3490	544.659856095825	1
0	3493	544.818175347894	0
0	3496	545.272365511067	1
0	3497	545.272365511067	2
0	3498	545.659856095825	1
0	3499	545.659856095825	0
0	3506	546.115216418326	1
0	3507	546.659856095825	0
0	3520	548.068906379409	1
0	3521	548.818061553669	0
0	3531	549.64551455672	1
0	3532	549.64551455672	2
0	3533	549.818061553669	1
0	3535	550.079419130428	0
0	3541	550.674625435533	1
0	3542	550.818061553669	0
0	3545	550.854434496169	1
0	3546	550.854434496169	2
0	3547	551.079419130428	1
0	3550	551.58547553669	2
0	3551	551.58547553669	3
0	3552	551.674625435533	2
0	3554	551.818061553669	1
0	3556	552.079419130428	0
0	3559	552.589068748417	1
0	3560	552.589068748417	2
0	3561	552.674625435533	1
0	3563	552.818061553669	0
0	3576	555.20987407557	1
0	3577	555.222585833958	0
0	3583	555.797831597548	1
0	3585	555.989062724674	2
0	3586	555.989062724674	3
0	3587	556.20987407557	2
0	3589	556.222585833958	1
0	3591	556.797831597548	0
0	3594	557.014156211439	1
0	3595	557.014156211439	2
0	3596	557.20987407557	1
0	3598	557.222585833958	0
0	3601	557.368948670715	1
0	3602	557.368948670715	2
0	3603	557.797831597548	1
0	3606	558.117117034845	2
0	3607	558.117117034845	3
0	3608	558.20987407557	2
0	3610	558.222585833958	1
0	3612	558.797831597548	0
0	3632	561.661230336734	1
0	3633	562.206875934362	0
0	3639	562.571510523919	1
0	3640	562.661230336734	0
0	3643	563.041004621979	1
0	3644	563.041004621979	2
0	3645	563.206875934362	1
0	3648	563.509782947465	2
0	3649	563.509782947465	3
0	3650	563.571510523919	2
0	3652	563.661230336734	1
0	3655	563.730522215851	2
0	3656	563.730522215851	3
0	3658	563.929831433564	4
0	3659	563.929831433564	5
0	3660	564.206875934362	4
0	3662	564.571510523919	3
0	3664	564.661230336734	2
0	3667	564.891509047043	3
0	3668	564.891509047043	4
0	3669	565.206875934362	3
0	3671	565.571510523919	2
0	3673	565.661230336734	1
0	3675	566.206875934362	0
0	3678	566.512834884525	1
0	3679	566.512834884525	2
0	3680	566.571510523919	1
0	3682	566.661230336734	0
0	3702	569.471769894103	1
0	3703	569.86934027765	0
0	3723	572.704339539543	1
0	3725	572.971988169619	2
0	3726	572.971988169619	3
0	3727	573.30471620977	2
0	3728	573.30471620977	1
0	3732	573.570673094664	2
0	3733	573.570673094664	3
0	3734	573.704339539543	2
0	3736	574.30471620977	1
0	3737	574.30471620977	0
0	3744	575.110901897428	1
0	3745	575.30471620977	0
0	3765	578.16762085047	1
0	3767	578.324644294285	2
0	3768	578.324644294285	3
0	3769	578.44238587791	2
0	3770	578.44238587791	1
0	3773	579.16762085047	0
0	3793	583.044618921759	1
0	3794	583.147633590424	0
0	3800	583.490893054065	1
0	3801	584.044618921759	0
0	3807	584.353528811047	1
0	3808	584.490893054065	0
0	3835	589.398123771713	1
0	3837	589.465806930473	2
0	3838	589.465806930473	3
0	3840	590.039579142611	4
0	3841	590.039579142611	5
0	3842	590.088553183644	4
0	3843	590.088553183644	3
0	3847	590.189322088406	4
0	3848	590.189322088406	5
0	3849	590.398123771713	4
0	3851	591.088553183644	3
0	3852	591.088553183644	2
0	3855	591.398123771713	1
0	3858	591.751815141497	2
0	3859	591.751815141497	3
0	3860	592.088553183644	2
0	3861	592.088553183644	1
0	3864	592.398123771713	0
0	3877	595.43959021863	1
0	3878	595.921453868574	0
0	3891	596.991856529619	1
0	3892	597.624334300819	0
0	3898	597.681676064613	1
0	3899	597.991856529619	0
0	3902	598.149796080841	1
0	3903	598.149796080841	2
0	3904	598.624334300819	1
0	3906	598.681676064613	0
0	3940	604.674021343083	1
0	3941	605.013440948344	0
0	3975	610.553431944093	1
0	3976	611.443553425916	0
0	3989	613.072885353099	1
0	3990	613.285191843741	0
0	3996	613.861776309078	1
0	3997	614.072885353099	0
0	4017	617.176532806131	1
0	4019	617.177428265185	2
0	4020	617.177428265185	3
0	4021	617.306151257804	2
0	4022	617.306151257804	1
0	4026	617.943574035846	2
0	4027	617.943574035846	3
0	4028	618.176532806131	2
0	4030	618.306151257804	1
0	4031	618.306151257804	0
0	4052	621.417038568514	1
0	4054	622.200778099954	2
0	4055	622.200778099954	3
0	4056	622.242652264265	2
0	4057	622.242652264265	1
0	4060	622.417038568514	0
0	4063	622.989929399509	1
0	4064	622.989929399509	2
0	4065	623.242652264265	1
0	4066	623.242652264265	0
0	4080	625.706325407202	1
0	4081	625.865502019152	0
0	4087	626.305513050791	1
0	4088	626.706325407202	0
0	4115	631.651410777151	1
0	4117	631.97511624792	2
0	4118	631.97511624792	3
0	4119	632.360275213639	2
0	4120	632.360275213639	1
0	4123	632.651410777151	0
0	4126	632.706724014315	1
0	4127	632.706724014315	2
0	4129	633.21797871911	3
0	4130	633.21797871911	4
0	4131	633.360275213639	3
0	4132	633.360275213639	2
0	4136	633.525596384564	3
0	4137	633.525596384564	4
0	4138	633.651410777151	3
0	4140	634.360275213639	2
0	4141	634.360275213639	1
0	4145	634.418923465717	2
0	4146	634.418923465717	3
0	4147	634.651410777151	2
0	4149	635.360275213639	1
0	4150	635.360275213639	0
0	4157	636.09887166985	1
0	4158	636.360275213639	0
0	4164	636.986962299005	1
0	4165	637.09887166985	0
0	4178	639.662261277129	1
0	4179	639.728597886466	0
0	4206	644.235828997029	1
0	4207	644.593467886464	0
0	4213	644.814382736341	1
0	4215	645.167463738856	2
0	4216	645.167463738856	3
0	4217	645.235828997029	2
0	4219	645.593467886464	1
0	4221	645.814382736341	0
0	4224	646.228490622549	1
0	4225	646.228490622549	2
0	4226	646.235828997029	1
0	4228	646.593467886464	0
0	4255	650.533267992139	1
0	4256	651.011428400436	0
0	4269	652.837854831033	1
0	4270	653.447577121873	0
0	4290	656.350769571707	1
0	4291	656.696817806281	0
0	4318	661.115471566522	1
0	4319	661.54874227297	0
0	4325	661.67165880082	1
0	4327	661.992487442661	2
0	4328	661.992487442661	3
0	4329	662.115471566522	2
0	4331	662.54874227297	1
0	4333	662.67165880082	0
0	4346	664.374014734093	1
0	4347	665.248261016061	0
0	4367	667.526548899018	1
0	4369	667.794472877427	2
0	4370	667.794472877427	3
0	4371	668.327404276987	2
0	4372	668.327404276987	1
0	4375	668.526548899018	0
0	4378	668.560256730244	1
0	4379	668.560256730244	2
0	4381	669.241832024441	3
0	4382	669.241832024441	4
0	4383	669.327404276987	3
0	4384	669.327404276987	2
0	4387	669.526548899018	1
0	4389	670.327404276987	0
0	4399	671.301135929668	1
0	4400	671.301135929668	2
0	4401	671.327404276987	1
0	4403	671.533528564271	0
0	4416	674.045421646797	1
0	4417	674.421071862641	0
0	4437	677.547762283791	1
0	4439	677.989688901261	2
0	4440	677.989688901261	3
0	4441	678.194726386374	2
0	4442	678.194726386374	1
0	4445	678.547762283791	0
0	4458	680.881209733991	1
0	4459	681.156161421216	0
0	4479	684.720175948706	1
0	4480	685.214558356229	0
0	4486	685.31157548466	1
0	4487	685.720175948706	0
0	4507	689.426049739996	1
0	4508	689.480745860331	0
0	4521	691.713762022139	1
0	4522	692.150944419722	0
0	4528	692.582586727161	1
0	4529	692.713762022139	0
0	4532	692.966542238952	1
0	4533	692.966542238952	2
0	4534	693.150944419722	1
0	4537	693.507687287931	2
0	4538	693.507687287931	3
0	4539	693.582586727161	2
0	4541	693.713762022139	1
0	4543	694.150944419722	0
0	4546	694.476740001028	1
0	4547	694.476740001028	2
0	4548	694.582586727161	1
0	4550	694.713762022139	0
0	4584	700.630459737588	1
0	4585	700.741326274424	0
0	4605	704.124218508897	1
0	4606	704.167012889394	0
0	4612	704.734725133549	1
0	4613	705.124218508897	0
0	4626	706.760456890748	1
0	4627	707.025198846046	0
0	4633	707.369836483637	1
0	4634	707.760456890748	0
0	4654	710.497191754679	1
0	4655	710.712782939173	0
0	4661	711.344638456455	1
0	4662	711.497191754679	0
0	4675	713.670061285971	1
0	4676	713.991214061255	0
0	4682	714.527557128612	1
0	4683	714.670061285971	0
0	4703	717.720856712958	1
0	4704	718.583096937185	0
0	4738	724.14924577567	1
0	4739	724.950758671865	0
0	4759	727.862586542685	1
0	4760	728.515224444504	0
0	4766	728.69055892428	1
0	4767	728.862586542685	0
0	4808	736.641384686956	1
0	4809	736.974211596442	0
0	4815	737.031876530389	1
0	4817	737.271366101265	2
0	4818	737.271366101265	3
0	4819	737.641384686956	2
0	4821	737.974211596442	1
0	4823	738.031876530389	0
0	4826	738.456631187177	1
0	4827	738.456631187177	2
0	4828	738.641384686956	1
0	4830	738.974211596442	0
0	4836	739.614408742497	1
0	4837	739.641384686956	0
0	4850	741.866248748802	1
0	4851	741.92154095766	0
0	4871	744.420270994044	1
0	4872	745.279637193881	0
0	4892	748.212184497799	1
0	4893	748.31276676055	0
0	4899	748.934112485191	1
0	4900	749.212184497799	0
0	4913	750.662614865769	1
0	4915	751.16890324899	2
0	4916	751.16890324899	3
0	4917	751.171621772983	2
0	4918	751.171621772983	1
0	4921	751.662614865769	0
0	4934	753.440674276448	1
0	4935	753.676828366402	0
0	4948	755.241988336889	1
0	4949	755.534217197216	0
0	4955	756.033396415323	1
0	4956	756.241988336889	0
0	4969	757.727052040314	1
0	4970	758.05637483748	0
0	4976	758.564016398281	1
0	4977	758.727052040314	0
0	4983	759.230172117802	1
0	4984	759.564016398281	0
0	5004	763.205428454422	1
0	5006	763.42373907568	2
0	5007	763.42373907568	3
0	5008	763.624397669873	2
0	5009	763.624397669873	1
0	5012	764.205428454422	0
0	5025	765.265828482073	1
0	5026	765.713009858108	0
0	5067	772.826883482476	1
0	5068	773.076804959992	0
0	5081	774.449137332477	1
0	5082	775.174677241664	0
0	5088	775.246971438517	1
0	5089	775.449137332477	0
0	5102	776.638946761785	1
0	5104	777.196052633927	2
0	5105	777.196052633927	3
0	5106	777.372312031924	2
0	5107	777.372312031924	1
0	5110	777.638946761785	0
0	5137	782.755151030285	1
0	5138	782.90496404591	0
0	5144	783.457065139749	1
0	5145	783.755151030285	0
0	5151	784.261995022435	1
0	5152	784.457065139749	0
0	5158	784.790407052541	1
0	5159	785.261995022435	0
0	5172	786.867905292326	1
0	5173	787.090608683406	0
0	5179	787.335838440381	1
0	5180	787.867905292326	0
0	5183	787.934901331789	1
0	5184	787.934901331789	2
0	5185	788.090608683406	1
0	5187	788.335838440381	0
0	5190	788.400105145794	1
0	5191	788.400105145794	2
0	5192	788.867905292326	1
0	5194	789.090608683406	0
0	5207	790.817256759489	1
0	5208	790.921300774743	0
0	5214	791.542481000404	1
0	5215	791.817256759489	0
0	5221	792.061079829132	1
0	5222	792.542481000404	0
0	5235	793.966749853672	1
0	5236	794.398460506044	0
0	5249	796.754742236818	1
0	5250	797.075663848525	0
0	5256	797.362793987181	1
0	5257	797.754742236818	0
0	5291	803.693464738475	1
0	5292	804.058083187263	0
0	5312	807.832465649985	1
0	5313	808.387958021619	0
0	5323	809.309298036654	1
0	5324	809.309298036654	2
0	5325	809.387958021619	1
0	5327	810.055384136913	0
0	5361	815.676038086234	1
0	5362	815.699394129511	0
0	5368	816.648390060502	1
0	5369	816.676038086234	0
0	5375	817.62402010741	1
0	5376	817.648390060502	0
0	5382	818.374448188336	1
0	5383	818.62402010741	0
0	5386	818.639109540655	1
0	5387	818.639109540655	2
0	5388	818.648390060502	1
0	5390	819.374448188336	0
0	5400	820.135921151252	1
0	5401	820.135921151252	2
0	5402	820.374448188336	1
0	5404	820.747959159997	0
0	5410	821.049243920073	1
0	5411	821.374448188336	0
0	5421	822.351192303193	1
0	5422	822.351192303193	2
0	5423	822.374448188336	1
0	5426	822.779192340709	2
0	5427	822.779192340709	3
0	5428	823.108438300751	2
0	5429	823.108438300751	1
0	5432	823.374448188336	0
0	5435	824.085138388291	1
0	5436	824.085138388291	2
0	5437	824.108438300751	1
0	5438	824.108438300751	0
0	5452	825.805192288672	1
0	5453	826.458568360174	0
0	5466	828.088289820295	1
0	5467	828.592406430703	0
0	5480	830.588633691853	1
0	5482	831.194324680731	2
0	5483	831.194324680731	3
0	5484	831.199790788488	2
0	5485	831.199790788488	1
0	5488	831.588633691853	0
0	5491	831.984652924792	1
0	5492	831.984652924792	2
0	5493	832.199790788488	1
0	5494	832.199790788488	0
0	5501	832.673498978596	1
0	5503	832.935295805914	2
0	5504	832.935295805914	3
0	5505	833.199790788488	2
0	5506	833.199790788488	1
0	5509	833.673498978596	0
0	5512	833.893441014575	1
0	5513	833.893441014575	2
0	5514	834.199790788488	1
0	5515	834.199790788488	0
0	5519	834.551431059455	1
0	5520	834.551431059455	2
0	5521	834.673498978596	1
0	5523	835.199790788488	0
0	5536	837.227604072374	1
0	5537	838.169477554657	0
0	5564	841.845287272481	1
0	5565	842.094881508407	0
0	5599	848.30224824023	1
0	5601	848.584154858706	2
0	5602	848.584154858706	3
0	5603	848.759231775446	2
0	5604	848.759231775446	1
0	5608	849.241393645254	2
0	5609	849.241393645254	3
0	5610	849.30224824023	2
0	5613	849.518033722299	3
0	5614	849.518033722299	4
0	5615	849.759231775446	3
0	5616	849.759231775446	2
0	5619	850.30224824023	1
0	5621	850.759231775446	0
0	5627	851.041465142324	1
0	5628	851.30224824023	0
0	5631	851.337952523558	1
0	5632	851.337952523558	2
0	5634	851.344024180655	3
0	5635	851.344024180655	4
0	5636	851.759231775446	3
0	5638	852.041465142324	2
0	5640	852.30224824023	1
0	5642	852.759231775446	0
0	5648	853.084215270301	1
0	5649	853.30224824023	0
0	5669	857.092463567809	1
0	5670	857.448944464732	0
0	5683	859.33583249548	1
0	5684	859.583724648114	0