version 3
run MMc-5-20221127-11:38:40-7588
attr configname MMc
attr datetime 20221127-11:38:40
attr datetimef 20221127-113840
attr experiment MMc
attr inifile omnetpp.ini
attr iterationvars "$mean=uniform(0.5s, 1.5s), $dev=0.5*(uniform(0.5s, 1.5s)), $time=1.0, $num=3, $0=45732, $1=35463, $2=67563"
attr iterationvarsd mean=uniform(0.5s,_1.5s)/dev=0.5#2a(uniform(0.5s,_1.5s))/time=1.0/num=3/45732/35463/67563
attr iterationvarsf mean=uniform(0.5s,_1.5s),dev=0.5#2a(uniform(0.5s,_1.5s)),time=1.0,num=3,45732,35463,67563-
attr measurement "$mean=uniform(0.5s, 1.5s), $dev=0.5*(uniform(0.5s, 1.5s)), $time=1.0, $num=3, $0=45732, $1=35463, $2=67563"
attr network MMc
attr processid 7588
attr repetition 1
attr replication #1
attr resultdir results
attr runnumber 5
attr seedset 5
itervar dev "0.5*(uniform(0.5s, 1.5s))"
itervar mean "uniform(0.5s, 1.5s)"
itervar num 3
itervar time 1.0
config description "MMc module"
config network MMc
config MMc.source.interArrivalTime "truncnormal(uniform(0.5s, 1.5s), 0.5*(uniform(0.5s, 1.5s)))"
config MMc.mmc.serviceTime 1.0s
config MMc.mmc.c 3
config MMc.mmc.capacity 10000
config record-eventlog false
config **.scalar-recording true
config **.vector-recording true
config repeat 4
config seed-1-mt 45732
config seed-2-mt 35463
config seed-3-mt 67563
config output-vector-file MMc-3-1.0-results/1.vec
config output-scalar-file MMc-3-1.0-results/1.sca

vector 0 MMc.mmc queueLength:vector ETV
attr interpolationmode none
attr recordingmode vector
attr title "queue length"
vector 1 MMc.mmc util:vector ETV
attr interpolationmode none
attr recordingmode vector
attr title resources
0	0	0	0
0	6	10.996598724175	1
0	7	11	0
0	20	13.327767945624	1
0	21	13.662591751393	0
0	27	14.079224920438	1
0	28	14.327767945624	0
0	34	15.048137662279	1
0	35	15.079224920438	0
0	41	16.026822939719	1
0	42	16.048137662279	0
0	48	16.987789613615	1
0	49	17.026822939719	0
0	69	19.993718229036	1
0	70	20.538147314736	0
0	83	22.465491943103	1
0	84	22.575822020487	0
0	104	26.332729951677	1
0	105	26.80858165946	0
0	167	39.076148197293	1
0	168	39.514865003245	0
0	188	41.888438339545	1
0	189	42.49647853407	0
0	195	42.524304624611	1
0	196	42.888438339545	0
0	209	44.883916490719	1
0	210	45.28234723985	0
0	230	49.049880443504	1
0	232	49.731714044246	2
0	233	49.731714044246	3
0	234	49.953753234011	2
0	235	49.953753234011	1
0	238	50.049880443504	0
0	251	51.373835109219	1
0	252	52.082511277374	0
0	258	52.369010821109	1
0	259	52.373835109219	0
0	293	60.58983882048	1
0	294	60.93939648698	0
0	300	60.955820196635	1
0	301	61.58983882048	0
0	321	64.132154442117	1
0	322	64.679597552541	0
0	328	64.74916046911	1
0	329	65.132154442117	0
0	332	65.547064908066	1
0	333	65.547064908066	2
0	334	65.679597552541	1
0	336	65.74916046911	0
0	342	66.626246980682	1
0	343	66.679597552541	0
0	349	67.325610816659	1
0	350	67.626246980682	0
0	356	68.28402823049	1
0	357	68.325610816659	0
0	360	68.388016485126	1
0	361	68.388016485126	2
0	362	68.626246980682	1
0	365	68.917282876666	2
0	366	68.917282876666	3
0	367	69.28402823049	2
0	369	69.325610816659	1
0	371	69.626246980682	0
0	391	73.337851364287	1
0	392	73.499307907737	0
0	398	74.140958270755	1
0	399	74.337851364287	0
0	426	79.970428521676	1
0	427	80.450735122567	0
0	433	80.723408298857	1
0	434	80.970428521676	0
0	440	81.62910009919	1
0	441	81.723408298857	0
0	454	82.893319488827	1
0	455	83.809444215968	0
0	465	84.540202269157	1
0	466	84.540202269157	2
0	467	84.809444215968	1
0	469	85.116647387719	0
0	475	85.559119430448	1
0	476	85.809444215968	0
0	482	86.347830581436	1
0	483	86.559119430448	0
0	503	90.051586839754	1
0	504	90.749640013959	0
0	538	97.711249904997	1
0	539	98.08577351502	0
0	545	98.167625949352	1
0	546	98.711249904997	0
0	559	101.014380629069	1
0	560	101.168825957829	0
0	566	101.455807891013	1
0	567	102.014380629069	0
0	601	107.94853034047	1
0	602	108.233918309099	0
0	608	108.829022787568	1
0	609	108.94853034047	0
0	622	111.241100642586	1
0	623	111.503990107314	0
0	629	112.179220132121	1
0	630	112.241100642586	0
0	636	112.668131290743	1
0	637	113.179220132121	0
0	664	117.661054275507	1
0	665	118.165678529786	0
0	678	120.012690934911	1
0	679	120.167892890818	0
0	685	120.560098712246	1
0	686	121.012690934911	0
0	692	121.375201013168	1
0	693	121.560098712246	0
0	696	121.874368917611	1
0	697	121.874368917611	2
0	698	122.012690934911	1
0	700	122.375201013168	0
0	706	122.961465771433	1
0	707	123.012690934911	0
0	710	123.298755146008	1
0	711	123.298755146008	2
0	712	123.375201013168	1
0	714	123.961465771433	0
0	755	132.405074523461	1
0	756	132.552378587603	0
0	762	132.663611949625	1
0	764	132.877605248706	2
0	765	132.877605248706	3
0	766	133.405074523461	2
0	768	133.552378587603	1
0	771	133.609683970228	2
0	772	133.609683970228	3
0	773	133.663611949625	2
0	776	134.122816019262	3
0	777	134.122816019262	4
0	778	134.405074523461	3
0	781	134.541126113518	4
0	782	134.541126113518	5
0	783	134.552378587603	4
0	785	134.663611949625	3
0	787	135.405074523461	2
0	789	135.552378587603	1
0	791	135.663611949625	0
0	794	136.190204817634	1
0	795	136.190204817634	2
0	796	136.405074523461	1
0	798	136.552378587603	0
0	801	136.617819728271	1
0	802	136.617819728271	2
0	803	136.663611949625	1
0	806	137.208892585189	2
0	807	137.208892585189	3
0	808	137.405074523461	2
0	810	137.552378587603	1
0	812	137.663611949625	0
0	815	138.246969843846	1
0	816	138.246969843846	2
0	817	138.405074523461	1
0	819	138.552378587603	0
0	839	142.315705475628	1
0	840	142.572811213101	0
0	846	143.02523265404	1
0	847	143.315705475628	0
0	881	150.563059401939	1
0	882	150.708715978072	0
0	888	151.114328530304	1
0	889	151.563059401939	0
0	902	153.304498697992	1
0	903	153.8971270026	0
0	909	154.157112485957	1
0	910	154.304498697992	0
0	923	156.076534676685	1
0	924	156.262715575738	0
0	937	158.986475459166	1
0	938	159.352932438217	0
0	951	161.09209553368	1
0	952	161.538942102634	0
0	958	162.021682421778	1
0	959	162.09209553368	0
0	965	162.767270507311	1
0	966	163.021682421778	0
0	972	163.403736921832	1
0	973	163.767270507311	0
0	986	165.420979395228	1
0	988	165.756053899446	2
0	989	165.756053899446	3
0	990	165.856760634435	2
0	991	165.856760634435	1
0	995	166.143191379281	2
0	996	166.143191379281	3
0	997	166.420979395228	2
0	999	166.856760634435	1
0	1000	166.856760634435	0
0	1021	170.265889251192	1
0	1022	170.804904132351	0
0	1028	171.112932169327	1
0	1029	171.265889251192	0
0	1056	175.364183816715	1
0	1057	175.810310529795	0
0	1063	176.135827530274	1
0	1064	176.364183816715	0
0	1084	180.085985311547	1
0	1085	180.373378679562	0
0	1091	180.971931532486	1
0	1092	181.085985311547	0
0	1098	181.707872455826	1
0	1099	181.971931532486	0
0	1105	182.426938218526	1
0	1106	182.707872455826	0
0	1133	188.355551826295	1
0	1135	188.575004849661	2
0	1136	188.575004849661	3
0	1137	188.770761987142	2
0	1138	188.770761987142	1
0	1142	189.233781693752	2
0	1143	189.233781693752	3
0	1144	189.355551826295	2
0	1146	189.770761987142	1
0	1147	189.770761987142	0
0	1154	190.518707069385	1
0	1155	190.770761987142	0
0	1203	199.647391737054	1
0	1205	200.191452156315	2
0	1206	200.191452156315	3
0	1207	200.245741089788	2
0	1208	200.245741089788	1
0	1211	200.647391737054	0
0	1214	201.03365366039	1
0	1215	201.03365366039	2
0	1216	201.245741089788	1
0	1217	201.245741089788	0
0	1231	203.069509303375	1
0	1232	203.876707335607	0
0	1238	203.956688644337	1
0	1239	204.069509303375	0
0	1252	205.803786279171	1
0	1253	206.069470985964	0
0	1266	207.497328448905	1
0	1267	207.966844282063	0
0	1273	208.473298149248	1
0	1274	208.497328448905	0
0	1294	212.179221076306	1
0	1295	212.262028261638	0
0	1315	216.141665092104	1
0	1316	216.63942831093	0
0	1329	219.520998490403	1
0	1330	219.70732926246	0
0	1357	224.513092280002	1
0	1358	224.551607005434	0
0	1364	225.209256512972	1
0	1365	225.513092280002	0
0	1371	226.20649056666	1
0	1372	226.209256512972	0
0	1392	229.876331770156	1
0	1393	229.963876325967	0
0	1399	230.584527137839	1
0	1400	230.876331770156	0
0	1413	233.110247398726	1
0	1414	233.242024613734	0
0	1448	238.588451024843	1
0	1449	239.0497083608	0
0	1462	240.342512166567	1
0	1463	240.702254745312	0
0	1469	240.91558567172	1
0	1471	241.319667292621	2
0	1472	241.319667292621	3
0	1473	241.342512166567	2
0	1475	241.702254745312	1
0	1478	241.706134490349	2
0	1479	241.706134490349	3
0	1480	241.91558567172	2
0	1482	242.342512166567	1
0	1484	242.702254745312	0
0	1490	243.286602803251	1
0	1491	243.342512166567	0
0	1511	246.906351203545	1
0	1512	246.923967596461	0
0	1525	248.261412157434	1
0	1526	248.962814739324	0
0	1539	250.849029531136	1
0	1540	250.937842534869	0
0	1553	252.178209296995	1
0	1554	253.10474755055	0
0	1574	254.843768605029	1
0	1575	255.619158367272	0
0	1581	255.771176571344	1
0	1582	255.843768605029	0
0	1609	260.373186472898	1
0	1610	260.778821974018	0
0	1623	262.774277728888	1
0	1624	262.965028066882	0
0	1637	264.500319368444	1
0	1639	264.550126162324	2
0	1640	264.550126162324	3
0	1641	264.961424570718	2
0	1642	264.961424570718	1
0	1645	265.500319368444	0
0	1658	266.676784955038	1
0	1660	267.07166022226	2
0	1661	267.07166022226	3
0	1662	267.148267882057	2
0	1663	267.148267882057	1
0	1666	267.676784955038	0
0	1669	267.969428822215	1
0	1670	267.969428822215	2
0	1671	268.148267882057	1
0	1672	268.148267882057	0
0	1676	268.498152473696	1
0	1677	268.498152473696	2
0	1678	268.676784955038	1
0	1681	268.915958703831	2
0	1682	268.915958703831	3
0	1683	269.148267882057	2
0	1684	269.148267882057	1
0	1687	269.676784955038	0
0	1707	273.725406050973	1
0	1708	273.908582525755	0
0	1728	277.4714897245	1
0	1729	277.643595062592	0
0	1749	280.828988388003	1
0	1750	281.520174436798	0
0	1770	284.050949296113	1
0	1771	284.569361095146	0
0	1805	289.80004035843	1
0	1806	290.164654685651	0
0	1812	290.595091552386	1
0	1813	290.80004035843	0
0	1816	291.122285141331	1
0	1817	291.122285141331	2
0	1818	291.164654685651	1
0	1820	291.595091552386	0
0	1847	295.188064697863	1
0	1848	295.925790532047	0
0	1882	302.718497566914	1
0	1883	303.462072659337	0
0	1903	305.233564069502	1
0	1905	305.855458597917	2
0	1906	305.855458597917	3
0	1907	306.233236997444	2
0	1908	306.233236997444	1
0	1911	306.233564069502	0
0	1914	306.545918037638	1
0	1915	306.545918037638	2
0	1917	307.14833398076	3
0	1918	307.14833398076	4
0	1919	307.233236997444	3
0	1920	307.233236997444	2
0	1923	307.233564069502	1
0	1926	308.077749294318	2
0	1927	308.077749294318	3
0	1928	308.233236997444	2
0	1929	308.233236997444	1
0	1932	308.233564069502	0
0	1935	308.890296583704	1
0	1936	308.890296583704	2
0	1938	308.904252712862	3
0	1939	308.904252712862	4
0	1940	309.233236997444	3
0	1941	309.233236997444	2
0	1944	309.233564069502	1
0	1947	309.83133579129	2
0	1948	309.83133579129	3
0	1949	310.233236997444	2
0	1950	310.233236997444	1
0	1953	310.233564069502	0
0	1980	315.001421168523	1
0	1981	315.241749001948	0
0	1994	317.445831751847	1
0	1995	317.884423370132	0
0	2015	320.648337961081	1
0	2016	321.119795342433	0
0	2022	321.432941096354	1
0	2023	321.648337961081	0
0	2026	322.103461659314	1
0	2027	322.103461659314	2
0	2028	322.119795342433	1
0	2030	322.432941096354	0
0	2036	323.008017841396	1
0	2037	323.119795342433	0
0	2040	323.162279517363	1
0	2041	323.162279517363	2
0	2042	323.432941096354	1
0	2045	323.73694405755	2
0	2046	323.73694405755	3
0	2047	324.008017841396	2
0	2049	324.119795342433	1
0	2051	324.432941096354	0
0	2064	325.924818250622	1
0	2065	326.141000474985	0
0	2078	328.208556853081	1
0	2079	328.600097865342	0
0	2120	337.18966072375	1
0	2121	337.247564756757	0
0	2148	342.872616922224	1
0	2149	343.375718705265	0
0	2155	343.648999811283	1
0	2156	343.872616922224	0
0	2159	344.265295684061	1
0	2160	344.265295684061	2
0	2161	344.375718705265	1
0	2164	344.422306577768	2
0	2165	344.422306577768	3
0	2166	344.648999811283	2
0	2168	344.872616922224	1
0	2170	345.375718705265	0
0	2176	345.697938834526	1
0	2177	345.872616922224	0
0	2197	348.800351389688	1
0	2198	348.934220617343	0
0	2211	351.375127428095	1
0	2212	351.476216213257	0
0	2218	351.733587974047	1
0	2219	352.375127428095	0
0	2239	356.149238952289	1
0	2241	356.223567892786	2
0	2242	356.223567892786	3
0	2243	356.361372393547	2
0	2244	356.361372393547	1
0	2247	357.149238952289	0
0	2250	357.180200722976	1
0	2251	357.180200722976	2
0	2252	357.361372393547	1
0	2253	357.361372393547	0
0	2257	357.8074653144	1
0	2258	357.8074653144	2
0	2259	358.149238952289	1
0	2261	358.361372393547	0
0	2267	358.71703659973	1
0	2268	359.149238952289	0
0	2271	359.212220747283	1
0	2272	359.212220747283	2
0	2273	359.361372393547	1
0	2275	359.71703659973	0
0	2316	367.073224284827	1
0	2317	367.598401347313	0
0	2330	369.044700555843	1
0	2331	369.284922873204	0
0	2344	371.368827523881	1
0	2345	371.601325118982	0
0	2372	375.170919834205	1
0	2374	375.870333056082	2
0	2375	375.870333056082	3
0	2376	376.040735781032	2
0	2377	376.040735781032	1
0	2380	376.170919834205	0
0	2393	377.585405220362	1
0	2394	378.347001993432	0
0	2404	379.321026610606	1
0	2405	379.321026610606	2
0	2406	379.347001993432	1
0	2408	379.730739616	0
0	2421	381.494696967863	1
0	2423	381.649456201734	2
0	2424	381.649456201734	3
0	2425	381.876418355752	2
0	2426	381.876418355752	1
0	2429	382.494696967863	0
0	2432	382.695062231662	1
0	2433	382.695062231662	2
0	2434	382.876418355752	1
0	2435	382.876418355752	0
0	2439	383.241497047519	1
0	2440	383.241497047519	2
0	2441	383.494696967863	1
0	2443	383.876418355752	0
0	2449	384.1136721175	1
0	2450	384.494696967863	0
0	2456	385.049394703149	1
0	2457	385.1136721175	0
0	2463	385.974033441787	1
0	2465	385.98606723663	2
0	2466	385.98606723663	3
0	2467	386.049394703149	2
0	2469	386.1136721175	1
0	2472	386.411742399212	2
0	2473	386.411742399212	3
0	2474	386.974033441787	2
0	2476	387.049394703149	1
0	2478	387.1136721175	0
0	2526	397.046637918379	1
0	2527	397.077897947057	0
0	2547	400.187322545787	1
0	2548	400.247823603512	0
0	2554	401.040908233915	1
0	2555	401.187322545787	0
0	2575	403.749356693096	1
0	2576	404.476569763916	0
0	2589	405.70196648874	1
0	2590	405.917269967418	0
0	2596	406.525134555184	1
0	2597	406.70196648874	0
0	2603	407.443602169741	1
0	2604	407.525134555184	0
0	2617	409.265420230181	1
0	2618	409.753988484074	0
0	2624	409.977867311709	1
0	2625	410.265420230181	0
0	2628	410.744077894599	1
0	2629	410.744077894599	2
0	2630	410.753988484074	1
0	2632	410.977867311709	0
0	2638	411.478144353161	1
0	2639	411.753988484074	0
0	2645	412.47630683989	1
0	2646	412.478144353161	0
0	2652	412.964337408428	1
0	2653	413.47630683989	0
0	2694	421.071814915777	1
0	2695	421.180039212419	0
0	2708	423.783812303494	1
0	2709	423.92566601684	0
0	2715	424.656442650432	1
0	2716	424.783812303494	0
0	2729	426.04799903997	1
0	2731	426.790071206643	2
0	2732	426.790071206643	3
0	2733	426.841828212758	2
0	2734	426.841828212758	1
0	2737	427.04799903997	0
0	2740	427.72289223611	1
0	2741	427.72289223611	2
0	2742	427.841828212758	1
0	2743	427.841828212758	0
0	2750	428.504697110146	1
0	2751	428.841828212758	0
0	2757	429.186126926925	1
0	2758	429.504697110146	0
0	2778	432.307096287264	1
0	2779	432.730974593268	0
0	2785	432.941916433935	1
0	2786	433.307096287264	0
0	2799	435.288749457782	1
0	2800	435.348054274879	0
0	2820	437.912927182908	1
0	2821	438.335385850869	0
0	2834	440.673182257344	1
0	2835	441.103728268393	0
0	2848	442.908084667582	1
0	2849	443.211514085323	0
0	2869	447.588506464089	1
0	2870	447.85138512594	0
0	2911	455.939059163335	1
0	2912	456.066940330167	0
0	2925	458.013674440758	1
0	2926	458.118252575403	0
0	2932	458.593649537838	1
0	2933	459.013674440758	0
0	2946	460.279988487594	1
0	2947	461.052096857279	0
0	2967	463.49114717839	1
0	2968	463.789886411966	0
0	2988	466.915105324637	1
0	2989	467.554268045279	0
0	3002	469.15338640532	1
0	3003	469.469662274041	0
0	3009	469.631045255072	1
0	3010	470.15338640532	0
0	3030	472.108104700697	1
0	3031	473.009751350802	0
0	3037	473.105763368643	1
0	3038	473.108104700697	0
0	3058	477.368500363865	1
0	3059	477.714327634636	0
0	3086	481.689368186705	1
0	3087	482.220736464756	0
0	3100	483.91311380072	1
0	3102	484.132008659195	2
0	3103	484.132008659195	3
0	3104	484.517741511045	2
0	3105	484.517741511045	1
0	3108	484.91311380072	0
0	3111	485.347953022879	1
0	3112	485.347953022879	2
0	3113	485.517741511045	1
0	3114	485.517741511045	0
0	3121	486.195278143679	1
0	3122	486.517741511045	0
0	3142	489.430681045588	1
0	3143	490.063076263961	0
0	3163	492.342715087698	1
0	3164	492.871801436213	0
0	3177	493.913730543698	1
0	3178	494.414211794276	0
0	3184	494.596624046131	1
0	3185	494.913730543698	0
0	3191	495.547645372804	1
0	3192	495.596624046131	0
0	3205	497.578590568907	1
0	3207	498.067081472761	2
0	3208	498.067081472761	3
0	3209	498.132459781818	2
0	3210	498.132459781818	1
0	3213	498.578590568907	0
0	3240	502.83832025166	1
0	3241	503.309186809318	0
0	3247	503.590286883116	1
0	3248	503.83832025166	0
0	3275	508.009127816177	1
0	3276	508.203345426899	0
0	3282	508.972514314842	1
0	3283	509.009127816177	0
0	3303	512.104490638431	1
0	3304	512.625800549724	0
0	3324	515.559423558133	1
0	3325	516.135606508792	0
0	3345	519.404555380221	1
0	3346	519.41564396075	0
0	3352	520.010374170885	1
0	3353	520.404555380221	0
0	3359	520.875856454606	1
0	3360	521.010374170885	0
0	3373	523.028205562737	1
0	3374	523.064773997539	0
0	3387	524.568574737367	1
0	3389	525.343157604292	2
0	3390	525.343157604292	3
0	3391	525.56415200313	2
0	3392	525.56415200313	1
0	3395	525.568574737367	0
0	3398	525.852137174115	1
0	3399	525.852137174115	2
0	3400	526.56415200313	1
0	3401	526.56415200313	0
0	3408	526.81125240698	1
0	3409	527.56415200313	0
0	3436	532.35390807152	1
0	3437	532.777867597133	0
0	3443	532.890036452132	1
0	3445	533.306428146721	2
0	3446	533.306428146721	3
0	3447	533.35390807152	2
0	3449	533.777867597133	1
0	3451	533.890036452132	0
0	3464	536.065269752833	1
0	3465	536.087740242466	0
0	3478	538.03894656764	1
0	3479	538.328192307543	0
0	3527	547.712731520331	1
0	3528	547.768863072972	0
0	3534	548.67291965085	1
0	3535	548.712731520331	0
0	3548	551.31149168324	1
0	3549	551.490760439724	0
0	3562	553.384902954329	1
0	3563	553.710594298673	0
0	3576	554.835505139375	1
0	3577	555.623926571839	0
0	3590	556.997598377861	1
0	3591	557.202961410626	0
0	3597	557.944210640909	1
0	3598	557.997598377861	0
0	3625	563.83791790948	1
0	3626	563.850117903061	0
0	3639	565.945287887888	1
0	3640	566.065644401521	0
0	3646	566.701472262284	1
0	3647	566.945287887888	0
0	3653	567.55306833784	1
0	3654	567.701472262284	0
0	3674	571.290521746282	1
0	3675	571.492200231623	0
0	3688	574.226938656476	1
0	3689	574.360618645281	0
0	3702	576.045481559031	1
0	3703	576.228626212695	0
0	3716	578.03015310911	1
0	3717	578.278525224153	0
0	3723	578.321617235834	1
0	3725	578.935637161103	2
0	3726	578.935637161103	3
0	3727	579.03015310911	2
0	3729	579.278525224153	1
0	3731	579.321617235834	0
0	3734	579.887677756926	1
0	3735	579.887677756926	2
0	3736	580.03015310911	1
0	3738	580.278525224153	0
0	3786	589.789985722984	1
0	3787	590.044976078806	0
0	3793	590.473227106508	1
0	3794	590.789985722984	0
0	3800	591.174474367377	1
0	3801	591.473227106508	0
0	3814	593.192059188063	1
0	3815	593.834125835979	0
0	3821	593.972240286767	1
0	3823	594.099917672709	2
0	3824	594.099917672709	3
0	3825	594.192059188063	2
0	3828	594.698947156638	3
0	3829	594.698947156638	4
0	3830	594.834125835979	3
0	3833	594.89411414411	4
0	3834	594.89411414411	5
0	3835	594.972240286767	4
0	3837	595.192059188063	3
0	3840	595.475460951489	4
0	3841	595.475460951489	5
0	3842	595.834125835979	4
0	3844	595.972240286767	3
0	3846	596.192059188063	2
0	3849	596.333529975163	3
0	3850	596.333529975163	4
0	3851	596.834125835979	3
0	3853	596.972240286767	2
0	3856	597.079079583608	3
0	3857	597.079079583608	4
0	3858	597.192059188063	3
0	3860	597.834125835979	2
0	3862	597.972240286767	1
0	3864	598.192059188063	0
0	3867	598.553958447315	1
0	3868	598.553958447315	2
0	3869	598.834125835979	1
0	3871	598.972240286767	0
0	3877	599.753089167598	1
0	3878	599.834125835979	0
0	3884	600.182401576391	1
0	3885	600.753089167598	0
0	3905	603.94854870859	1
0	3906	604.083453117288	0
0	3912	604.53247880557	1
0	3913	604.94854870859	0
0	3933	606.70891071473	1
0	3935	607.297214839391	2
0	3936	607.297214839391	3
0	3937	607.6857603056	2
0	3938	607.6857603056	1
0	3941	607.70891071473	0
0	3968	611.884364324617	1
0	3969	612.099837513796	0
0	3989	615.487675419283	1
0	3990	615.817370299356	0
0	4003	618.044199165768	1
0	4004	618.292247942868	0
0	4024	621.607315785383	1
0	4025	622.32645287264	0
0	4052	626.63183397189	1
0	4053	626.716516142416	0
0	4066	629.386708707642	1
0	4067	629.786498757462	0
0	4087	632.367243059058	1
0	4088	632.461713952385	0
0	4115	636.783098731296	1
0	4116	637.355994625556	0
0	4122	637.500469055461	1
0	4123	637.783098731296	0
0	4143	641.144224319025	1
0	4144	641.856833350708	0
0	4150	642.028237863156	1
0	4151	642.144224319025	0
0	4154	642.578370397158	1
0	4155	642.578370397158	2
0	4156	642.856833350708	1
0	4158	643.028237863156	0
0	4164	643.25977182562	1
0	4165	643.856833350708	0
0	4192	648.216907438781	1
0	4193	648.302523531969	0
0	4206	651.349687662674	1
0	4207	651.778770547367	0
0	4213	652.150717317353	1
0	4214	652.349687662674	0
0	4234	655.262469808869	1
0	4235	655.966926047953	0
0	4248	658.116712157452	1
0	4249	658.148335361959	0
0	4262	659.378059583284	1
0	4264	659.50968292775	2
0	4265	659.50968292775	3
0	4266	660.255281230647	2
0	4267	660.255281230647	1
0	4270	660.378059583284	0
0	4273	660.757141496878	1
0	4274	660.757141496878	2
0	4275	661.255281230647	1
0	4276	661.255281230647	0
0	4283	661.473482161158	1
0	4284	662.255281230647	0
0	4294	662.570591772139	1
0	4295	662.570591772139	2
0	4296	663.255281230647	1
0	4299	663.464407240825	2
0	4300	663.464407240825	3
0	4301	663.482965736653	2
0	4302	663.482965736653	1
0	4306	663.918856514913	2
0	4307	663.918856514913	3
0	4308	664.255281230647	2
0	4310	664.482965736653	1
0	4311	664.482965736653	0
0	4315	664.794410706566	1
0	4316	664.794410706566	2
0	4317	665.255281230647	1
0	4319	665.482965736653	0
0	4339	669.0764031889	1
0	4340	669.565030156436	0
0	4353	671.770606659926	1
0	4354	672.037419465214	0
0	4360	672.450108977679	1
0	4362	672.768116795267	2
0	4363	672.768116795267	3
0	4364	672.770606659926	2
0	4366	673.037419465214	1
0	4368	673.450108977679	0
0	4371	673.612471696304	1
0	4372	673.612471696304	2
0	4373	673.770606659926	1
0	4375	674.037419465214	0
0	4378	674.354315907951	1
0	4379	674.354315907951	2
0	4380	674.450108977679	1
0	4382	674.770606659926	0
0	4385	674.927001163128	1
0	4386	674.927001163128	2
0	4387	675.037419465214	1
0	4389	675.450108977679	0
0	4395	675.896401765179	1
0	4396	676.037419465214	0
0	4409	677.530552573815	1
0	4410	678.116377315589	0
0	4416	678.306662996563	1
0	4417	678.530552573815	0
0	4430	680.465132726008	1
0	4431	681.278155382067	0
0	4444	682.731823068164	1
0	4445	682.801593189978	0
0	4451	683.474250108115	1
0	4452	683.731823068164	0
0	4472	686.208849026429	1
0	4474	686.847068023156	2
0	4475	686.847068023156	3
0	4477	686.925251879827	4
0	4478	686.925251879827	5
0	4479	687.044877638467	4
0	4480	687.044877638467	3
0	4484	687.054180282513	4
0	4485	687.054180282513	5
0	4486	687.208849026429	4
0	4488	688.044877638467	3
0	4489	688.044877638467	2
0	4492	688.208849026429	1
0	4495	688.49537637773	2
0	4496	688.49537637773	3
0	4497	689.044877638467	2
0	4498	689.044877638467	1
0	4501	689.208849026429	0
0	4514	690.897054633745	1
0	4515	691.38464374878	0
0	4521	691.553304130156	1
0	4522	691.897054633745	0
0	4535	694.266872168432	1
0	4536	694.722300680921	0
0	4556	697.847322510762	1
0	4557	697.860281525113	0
0	4570	700.592518582444	1
0	4571	701.082734932033	0
0	4605	707.109304981313	1
0	4606	707.296446161489	0
0	4654	716.912251312469	1
0	4655	717.226538769591	0
0	4661	717.769698852258	1
0	4662	717.912251312469	0
0	4665	718.028835795702	1
0	4666	718.028835795702	2
0	4667	718.226538769591	1
0	4669	718.769698852258	0
0	4672	718.877762856748	1
0	4673	718.877762856748	2
0	4674	718.912251312469	1
0	4676	719.226538769591	0
0	4717	726.479810872185	1
0	4718	727.085664543274	0
0	4724	727.180630191073	1
0	4725	727.479810872185	0
0	4752	731.050672192383	1
0	4753	731.644946833115	0
0	4787	738.104170682682	1
0	4788	738.981787635213	0
0	4798	739.352702919108	1
0	4799	739.352702919108	2
0	4800	739.981787635213	1
0	4803	740.204783727466	2
0	4804	740.204783727466	3
0	4805	740.328362932651	2
0	4806	740.328362932651	1
0	4809	740.981787635213	0
0	4843	746.357617416847	1
0	4844	746.727776826616	0
0	4857	749.288627940479	1
0	4858	749.571238355707	0
0	4871	751.600285345491	1
0	4872	751.638868611581	0
0	4878	751.848699927676	1
0	4879	752.600285345491	0
0	4889	753.236443266951	1
0	4890	753.236443266951	2
0	4891	753.600285345491	1
0	4894	753.850950335195	2
0	4895	753.850950335195	3
0	4896	754.056048784761	2
0	4897	754.056048784761	1
0	4900	754.600285345491	0
0	4903	754.779134940862	1
0	4904	754.779134940862	2
0	4905	755.056048784761	1
0	4906	755.056048784761	0
0	4920	756.268170983053	1
0	4921	757.249345420997	0
0	4941	760.201588700129	1
0	4942	760.742381551806	0
0	4969	764.705504170983	1
0	4970	764.931415572891	0
0	4997	770.114852243531	1
0	4998	770.366573500849	0
0	5004	770.810927610725	1
0	5005	771.114852243531	0
0	5025	774.449633565187	1
0	5026	775.001758201466	0
0	5074	782.250997639612	1
0	5075	782.813511846596	0
0	5088	784.540055655563	1
0	5089	784.565631874002	0
0	5165	799.670034448276	1
0	5166	800.392539953087	0
0	5179	801.704211148111	1
0	5180	802.113075088457	0
0	5186	802.277608586226	1
0	5187	802.704211148111	0
0	5207	805.475806034921	1
0	5208	805.708080610858	0
0	5214	806.239367104797	1
0	5215	806.475806034921	0
0	5218	806.690314413482	1
0	5219	806.690314413482	2
0	5220	806.708080610858	1
0	5223	807.197066311195	2
0	5224	807.197066311195	3
0	5225	807.239367104797	2
0	5227	807.475806034921	1
0	5229	807.708080610858	0
0	5256	812.862742821975	1
0	5257	812.997243676053	0
0	5277	815.659768250356	1
0	5279	815.89254399985	2
0	5280	815.89254399985	3
0	5282	815.927343857677	4
0	5283	815.927343857677	5
0	5284	816.386406461021	4
0	5285	816.386406461021	3
0	5289	816.608773964164	4
0	5290	816.608773964164	5
0	5291	816.659768250356	4
0	5294	816.827019368251	5
0	5295	816.827019368251	6
0	5297	817.354065699762	7
0	5298	817.354065699762	8
0	5299	817.386406461021	7
0	5300	817.386406461021	6
0	5303	817.659768250356	5
0	5305	818.386406461021	4
0	5306	818.386406461021	3
0	5309	818.659768250356	2
0	5311	819.386406461021	1
0	5312	819.386406461021	0
0	5316	819.541127551142	1
0	5317	819.541127551142	2
0	5318	819.659768250356	1
0	5321	820.026496199796	2
0	5322	820.026496199796	3
0	5323	820.386406461021	2
0	5324	820.386406461021	1
0	5327	820.659768250356	0
0	5330	820.931242067795	1
0	5331	820.931242067795	2
0	5332	821.386406461021	1
0	5333	821.386406461021	0
0	5361	826.795683679624	1
0	5362	827.35572879708	0
0	5389	832.000332593034	1
0	5390	832.187402117769	0
0	5396	832.684614892435	1
0	5397	833.000332593034	0
0	5403	833.5179639628	1
0	5404	833.684614892435	0
0	5424	836.543008393176	1
0	5425	837.348810156282	0
0	5438	838.63456031839	1
0	5439	839.252743380509	0
0	5452	840.257369640539	1
0	5453	840.696888351234	0
0	5459	840.810502502343	1
0	5460	841.257369640539	0
0	5466	841.779568352165	1
0	5467	841.810502502343	0
0	5480	844.330137002191	1
0	5481	844.535776579108	0
0	5522	851.87583565396	1
0	5523	852.125182351731	0
0	5536	854.412702945719	1
0	5537	854.485459327174	0
0	5543	854.755459983863	1
0	5544	855.412702945719	0
0	5564	859.591420461188	1
0	5565	859.666631945389	0
0	5571	860.009737315128	1
0	5572	860.591420461188	0
0	5592	863.542329777201	1
0	5593	863.976430056001	0
0	5606	865.675257113158	1
0	5607	865.799253120139	0
0	5613	866.174857030938	1
0	5614	866.675257113158	0
0	5627	868.208484426555	1
0	5628	868.25019749889	0
0	5634	868.909448249197	1
0	5635	869.208484426555	0
0	5641	869.806813404608	1
0	5642	869.909448249197	0
0	5648	870.449860739481	1
0	5649	870.806813404608	0
0	5662	872.758656665463	1
0	5663	873.016873145964	0
0	5697	879.534513745627	1
0	5698	880.007715389394	0
0	5704	880.083165303464	1
0	5705	880.534513745627	0
0	5718	882.297588910337	1
0	5719	882.545410263517	0
0	5725	882.953461953851	1
0	5726	883.297588910337	0
0	5739	885.621699092495	1
0	5740	885.75429657782	0
0	5760	888.444865544479	1
0	5762	888.879082445936	2
0	5763	888.879082445936	3
0	5764	889.04363245198	2
0	5765	889.04363245198	1
0	5769	889.43862388827	2
0	5770	889.43862388827	3
0	5771	889.444865544479	2
0	5773	890.04363245198	1
0	5774	890.04363245198	0
0	5781	890.919316722086	1
0	5782	891.04363245198	0
0	5788	891.579800703842	1
0	5789	891.919316722086	0
0	5802	893.503361775609	1
0	5804	893.751833309603	2
0	5805	893.751833309603	3
0	5806	893.994605370398	2
0	5807	893.994605370398	1
0	5810	894.503361775609	0
0	5813	894.614426237587	1
0	5814	894.614426237587	2
0	5815	894.994605370398	1
0	5816	894.994605370398	0
0	5820	895.179092675226	1
0	5821	895.179092675226	2
0	5822	895.503361775609	1
0	5824	895.994605370398	0
0	5837	897.526272802454	1
0	5838	897.595719368243	0
0	5858	900.747215621478	1
0	5859	900.962240885102	0
0	5865	900.972309040876	1
0	5867	901.703978978932	2
0	5868	901.703978978932	3
0	5869	901.747215621478	2
0	5871	901.962240885102	1
0	5873	901.972309040876	0
0	5879	902.955528064127	1
0	5880	902.962240885102	0
0	5893	904.74172130594	1
0	5894	905.286952677999	0
0	5914	908.357182990223	1
0	5915	908.967834466117	0
0	5942	913.881717951245	1
0	5943	913.935898933933	0
0	5949	914.156156628394	1
0	5950	914.881717951245	0
0	5984	921.273203349237	1
0	5985	921.691875753385	0
0	5998	923.731091026092	1
0	5999	923.905121356833	0
0	6005	924.219691487121	1
0	6006	924.731091026092	0
0	6009	924.904590424535	1
0	6010	924.904590424535	2
0	6011	924.905121356833	1
0	6013	925.219691487121	0
0	6040	929.533947953957	1
0	6041	930.326956166137	0
0	6054	931.894111642156	1
0	6055	932.067067468086	0
0	6068	933.823786022731	1
0	6069	934.066253268941	0
0	6075	934.544350074757	1
0	6076	934.823786022731	0
0	6082	935.293608469278	1
0	6083	935.544350074757	0
0	6089	935.871384427953	1
0	6090	936.293608469278	0
0	6110	939.953054258857	1
0	6111	940.364190474024	0
0	6138	945.51548855183	1
0	6139	945.872616970027	0
0	6145	946.01699336818	1
0	6146	946.51548855183	0
0	6149	946.652247530358	1
0	6150	946.652247530358	2