version 3
run MMc-6-20221127-11:38:40-7588
attr configname MMc
attr datetime 20221127-11:38:40
attr datetimef 20221127-113840
attr experiment MMc
attr inifile omnetpp.ini
attr iterationvars "$mean=uniform(0.5s, 1.5s), $dev=0.5*(uniform(0.5s, 1.5s)), $time=1.0, $num=3, $0=47853, $1=24674, $2=96433"
attr iterationvarsd mean=uniform(0.5s,_1.5s)/dev=0.5#2a(uniform(0.5s,_1.5s))/time=1.0/num=3/47853/24674/96433
attr iterationvarsf mean=uniform(0.5s,_1.5s),dev=0.5#2a(uniform(0.5s,_1.5s)),time=1.0,num=3,47853,24674,96433-
attr measurement "$mean=uniform(0.5s, 1.5s), $dev=0.5*(uniform(0.5s, 1.5s)), $time=1.0, $num=3, $0=47853, $1=24674, $2=96433"
attr network MMc
attr processid 7588
attr repetition 2
attr replication #2
attr resultdir results
attr runnumber 6
attr seedset 6
itervar dev "0.5*(uniform(0.5s, 1.5s))"
itervar mean "uniform(0.5s, 1.5s)"
itervar num 3
itervar time 1.0
config description "MMc module"
config network MMc
config MMc.source.interArrivalTime "truncnormal(uniform(0.5s, 1.5s), 0.5*(uniform(0.5s, 1.5s)))"
config MMc.mmc.serviceTime 1.0s
config MMc.mmc.c 3
config MMc.mmc.capacity 10000
config record-eventlog false
config **.scalar-recording true
config **.vector-recording true
config repeat 4
config seed-1-mt 47853
config seed-2-mt 24674
config seed-3-mt 96433
config output-vector-file MMc-3-1.0-results/2.vec
config output-scalar-file MMc-3-1.0-results/2.sca

vector 0 MMc.mmc queueLength:vector ETV
attr interpolationmode none
attr recordingmode vector
attr title "queue length"
vector 1 MMc.mmc util:vector ETV
attr interpolationmode none
attr recordingmode vector
attr title resources
0	0	0	0
0	27	14.701936645649	1
0	28	15.239024245857	0
0	38	15.99883638491	1
0	39	15.99883638491	2
0	40	16.239024245857	1
0	42	16.849565775284	0
0	69	21.339199314695	1
0	70	22.134049817705	0
0	83	23.2348089783	1
0	84	23.453264194701	0
0	90	23.921585097638	1
0	91	24.2348089783	0
0	97	24.669266633892	1
0	98	24.921585097638	0
0	132	31.026669854538	1
0	134	31.141652432452	2
0	135	31.141652432452	3
0	136	31.34888511142	2
0	137	31.34888511142	1
0	140	32.026669854538	0
0	143	32.242770604536	1
0	144	32.242770604536	2
0	145	32.34888511142	1
0	146	32.34888511142	0
0	160	35.068224997209	1
0	161	35.156907847093	0
0	174	36.323064840106	1
0	175	37.204106674536	0
0	181	37.30084141474	1
0	182	37.323064840106	0
0	185	37.827375588736	1
0	186	37.827375588736	2
0	187	38.204106674536	1
0	189	38.30084141474	0
0	195	38.869779547722	1
0	197	39.007475047107	2
0	198	39.007475047107	3
0	199	39.204106674536	2
0	201	39.30084141474	1
0	204	39.762413348969	2
0	205	39.762413348969	3
0	206	39.869779547722	2
0	208	40.204106674536	1
0	210	40.30084141474	0
0	213	40.665906610955	1
0	214	40.665906610955	2
0	215	40.869779547722	1
0	217	41.204106674536	0
0	223	41.779774329092	1
0	224	41.869779547722	0
0	237	44.434659690902	1
0	239	44.509232158027	2
0	240	44.509232158027	3
0	241	44.867349300463	2
0	242	44.867349300463	1
0	246	45.003038058034	2
0	247	45.003038058034	3
0	248	45.434659690902	2
0	250	45.867349300463	1
0	251	45.867349300463	0
0	255	46.193841279646	1
0	256	46.193841279646	2
0	257	46.434659690902	1
0	260	46.706010172562	2
0	261	46.706010172562	3
0	262	46.867349300463	2
0	263	46.867349300463	1
0	266	47.434659690902	0
0	269	47.699939890422	1
0	270	47.699939890422	2
0	271	47.867349300463	1
0	272	47.867349300463	0
0	279	48.772555816045	1
0	280	48.867349300463	0
0	286	48.918979676491	1
0	288	49.597567334101	2
0	289	49.597567334101	3
0	290	49.772555816045	2
0	292	49.867349300463	1
0	294	49.918979676491	0
0	328	54.907218908016	1
0	330	55.643565233452	2
0	331	55.643565233452	3
0	332	55.8424295022	2
0	333	55.8424295022	1
0	336	55.907218908016	0
0	339	56.365163061741	1
0	340	56.365163061741	2
0	341	56.8424295022	1
0	342	56.8424295022	0
0	349	57.382466211449	1
0	350	57.8424295022	0
0	384	63.268422141958	1
0	385	64.056735517129	0
0	398	66.262231764765	1
0	399	66.30162356627	0
0	419	69.655090015397	1
0	420	70.073044761607	0
0	426	70.316014271743	1
0	427	70.655090015397	0
0	430	71.058860903947	1
0	431	71.058860903947	2
0	432	71.073044761607	1
0	434	71.316014271743	0
0	447	73.199204883443	1
0	448	73.471719939846	0
0	454	74.103669955644	1
0	455	74.199204883443	0
0	461	74.874197521182	1
0	462	75.103669955644	0
0	475	76.859984816462	1
0	476	77.044571826527	0
0	496	80.243173694804	1
0	497	80.614846674547	0
0	510	82.280938165746	1
0	511	83.265520037255	0
0	524	84.418766053574	1
0	525	84.492207943841	0
0	531	84.679800049835	1
0	532	85.418766053574	0
0	552	88.560103706319	1
0	553	88.681681187812	0
0	559	88.847874317722	1
0	560	89.560103706319	0
0	566	89.736176657436	1
0	567	89.847874317722	0
0	570	90.140529752203	1
0	571	90.140529752203	2
0	572	90.560103706319	1
0	574	90.736176657436	0
0	601	95.072898247663	1
0	602	95.350665443091	0
0	615	97.06457823188	1
0	616	97.337099439258	0
0	622	97.806114886057	1
0	623	98.06457823188	0
0	643	100.762609288992	1
0	644	101.100714629906	0
0	650	101.446099634755	1
0	651	101.762609288992	0
0	654	102.059331269745	1
0	655	102.059331269745	2
0	656	102.100714629906	1
0	658	102.446099634755	0
0	661	102.609100119935	1
0	662	102.609100119935	2
0	663	102.762609288992	1
0	665	103.100714629906	0
0	668	103.439590275825	1
0	669	103.439590275825	2
0	670	103.446099634755	1
0	672	103.762609288992	0
0	692	106.966863427308	1
0	693	107.275691811399	0
0	699	107.377032122351	1
0	700	107.966863427308	0
0	713	109.695901074784	1
0	714	109.837183813833	0
0	748	116.38478470556	1
0	749	117.026725347174	0
0	762	118.695036096658	1
0	763	118.9545518801	0
0	769	119.654381688147	1
0	770	119.695036096658	0
0	776	120.191158359886	1
0	777	120.654381688147	0
0	804	125.124893169497	1
0	805	125.474601450585	0
0	811	125.494607020413	1
0	812	126.124893169497	0
0	825	128.109199471947	1
0	826	128.165299115505	0
0	832	128.691119895404	1
0	833	129.109199471947	0
0	839	129.259609847671	1
0	840	129.691119895404	0
0	843	129.963196454608	1
0	844	129.963196454608	2
0	845	130.109199471947	1
0	847	130.259609847671	0
0	860	132.012078820767	1
0	861	132.56473364937	0
0	888	136.943842110705	1
0	889	137.1698892207	0
0	895	137.249117692244	1
0	896	137.943842110705	0
0	923	142.129419803115	1
0	924	142.522247603822	0
0	937	143.605111091742	1
0	938	144.194324297775	0
0	944	144.59987450529	1
0	945	144.605111091742	0
0	951	145.412203997217	1
0	952	145.59987450529	0
0	972	150.674719770136	1
0	973	150.734466120742	0
0	979	151.193627020794	1
0	980	151.674719770136	0
0	986	151.985285919735	1
0	987	152.193627020794	0
0	1000	154.549589577887	1
0	1001	154.650510525775	0
0	1014	156.611120838205	1
0	1015	156.902507480824	0
0	1021	157.433109217646	1
0	1022	157.611120838205	0
0	1035	159.724618118664	1
0	1037	160.162877770816	2
0	1038	160.162877770816	3
0	1039	160.235946700928	2
0	1040	160.235946700928	1
0	1044	160.630473700648	2
0	1045	160.630473700648	3
0	1046	160.724618118664	2
0	1048	161.235946700928	1
0	1049	161.235946700928	0
0	1053	161.454467338776	1
0	1054	161.454467338776	2
0	1055	161.724618118664	1
0	1057	162.235946700928	0
0	1063	162.635015900894	1
0	1064	162.724618118664	0
0	1067	163.040215813246	1
0	1068	163.040215813246	2
0	1069	163.235946700928	1
0	1071	163.635015900894	0
0	1098	167.7007410556	1
0	1099	168.293196677408	0
0	1119	170.921567399727	1
0	1120	171.305622745647	0
0	1147	176.312462242298	1
0	1149	176.38013287769	2
0	1150	176.38013287769	3
0	1152	176.895549657659	4
0	1153	176.895549657659	5
0	1154	177.129040298087	4
0	1155	177.129040298087	3
0	1158	177.312462242298	2
0	1160	178.129040298087	1
0	1161	178.129040298087	0
0	1168	178.353726487835	1
0	1169	179.129040298087	0
0	1179	180.09857758987	1
0	1180	180.09857758987	2
0	1181	180.129040298087	1
0	1183	180.846127255645	0
0	1189	181.088135973011	1
0	1190	181.129040298087	0
0	1224	187.115382741128	1
0	1225	187.391308415328	0
0	1231	188.014506068434	1
0	1232	188.115382741128	0
0	1252	190.76185152223	1
0	1253	191.31564869086	0
0	1266	192.688668393608	1
0	1267	193.152752519817	0
0	1287	196.400141226787	1
0	1288	197.100459159834	0
0	1298	197.729218841604	1
0	1299	197.729218841604	2
0	1300	198.100459159834	1
0	1302	198.506034173841	0
0	1308	198.954974159676	1
0	1309	199.100459159834	0
0	1312	199.372579843999	1
0	1313	199.372579843999	2
0	1314	199.506034173841	1
0	1316	199.954974159676	0
0	1319	200.086176525708	1
0	1320	200.086176525708	2
0	1321	200.100459159834	1
0	1323	200.506034173841	0
0	1371	207.997536163247	1
0	1372	208.881462125314	0
0	1378	208.924110182031	1
0	1379	208.997536163247	0
0	1382	209.781954833558	1
0	1383	209.781954833558	2
0	1384	209.881462125314	1
0	1386	209.924110182031	0
0	1392	210.847312854191	1
0	1393	210.881462125314	0
0	1413	213.955933198954	1
0	1414	214.003692793097	0
0	1448	221.865067292277	1
0	1449	222.270602386258	0
0	1462	223.63882431929	1
0	1463	223.875988617045	0
0	1469	224.602586630283	1
0	1470	224.63882431929	0
0	1476	225.460316418647	1
0	1477	225.602586630283	0
0	1497	229.584658195689	1
0	1498	229.715798772267	0
0	1504	229.862271367694	1
0	1506	230.483667130792	2
0	1507	230.483667130792	3
0	1508	230.584658195689	2
0	1510	230.715798772267	1
0	1512	230.862271367694	0
0	1515	231.260746258069	1
0	1516	231.260746258069	2
0	1517	231.584658195689	1
0	1519	231.715798772267	0
0	1532	234.202455624888	1
0	1534	234.617353907922	2
0	1535	234.617353907922	3
0	1536	234.68119033486	2
0	1537	234.68119033486	1
0	1540	235.202455624888	0
0	1553	236.563212004175	1
0	1554	237.213593393897	0
0	1560	237.476934827831	1
0	1561	237.563212004175	0
0	1567	238.444193883649	1
0	1568	238.476934827831	0
0	1602	244.256999473211	1
0	1603	245.228448571129	0
0	1623	248.470132159508	1
0	1625	249.074379587236	2
0	1626	249.074379587236	3
0	1627	249.080104801262	2
0	1628	249.080104801262	1
0	1631	249.470132159508	0
0	1658	254.127334590296	1
0	1659	254.319909957182	0
0	1686	259.600929250563	1
0	1688	259.770927938831	2
0	1689	259.770927938831	3
0	1690	259.971821475587	2
0	1691	259.971821475587	1
0	1694	260.600929250563	0
0	1735	267.161068489193	1
0	1736	267.85090531623	0
0	1749	269.642003042456	1
0	1750	269.832883294743	0
0	1770	272.743353245638	1
0	1771	273.130591630433	0
0	1791	275.413310497394	1
0	1792	276.338637883794	0
0	1819	280.473234652748	1
0	1820	280.562079520916	0
0	1826	281.289512541891	1
0	1827	281.473234652748	0
0	1833	282.122581176934	1
0	1834	282.289512541891	0
0	1854	286.15187713584	1
0	1855	286.552230721759	0
0	1882	292.526255669683	1
0	1883	293.037041632354	0
0	1889	293.188494831848	1
0	1890	293.526255669683	0
0	1903	295.333529031694	1
0	1905	295.819575100379	2
0	1906	295.819575100379	3
0	1907	295.872044144496	2
0	1908	295.872044144496	1
0	1911	296.333529031694	0
0	1914	296.554875381621	1
0	1915	296.554875381621	2
0	1916	296.872044144496	1
0	1917	296.872044144496	0
0	1921	296.945357449647	1
0	1922	296.945357449647	2
0	1923	297.333529031694	1
0	1926	297.590932806182	2
0	1927	297.590932806182	3
0	1928	297.872044144496	2
0	1929	297.872044144496	1
0	1932	298.333529031694	0
0	1945	300.423565896512	1
0	1946	300.550605931512	0
0	2001	311.095177010073	1
0	2002	311.855845373436	0
0	2008	312.083520062319	1
0	2009	312.095177010073	0
0	2012	312.690365842313	1
0	2013	312.690365842313	2
0	2014	312.855845373436	1
0	2016	313.083520062319	0
0	2043	318.757672069648	1
0	2044	318.919139344657	0
0	2050	319.4984970103	1
0	2051	319.757672069648	0
0	2064	321.570683777991	1
0	2065	321.823329032584	0
0	2071	322.356764914673	1
0	2072	322.570683777991	0
0	2078	323.14995247418	1
0	2079	323.356764914673	0
0	2085	323.691085715467	1
0	2086	324.14995247418	0
0	2092	324.513701648159	1
0	2093	324.691085715467	0
0	2106	326.167770325813	1
0	2108	326.426883619223	2
0	2109	326.426883619223	3
0	2110	326.744640001582	2
0	2111	326.744640001582	1
0	2114	327.167770325813	0
0	2117	327.587930178235	1
0	2118	327.587930178235	2
0	2119	327.744640001582	1
0	2120	327.744640001582	0
0	2134	329.672019248937	1
0	2135	329.867879732502	0
0	2141	330.35407045337	1
0	2143	330.435601862923	2
0	2144	330.435601862923	3
0	2145	330.672019248937	2
0	2148	330.850442922338	3
0	2149	330.850442922338	4
0	2150	330.867879732502	3
0	2152	331.35407045337	2
0	2154	331.672019248937	1
0	2156	331.867879732502	0
0	2162	332.524288389389	1
0	2163	332.672019248937	0
0	2176	335.544103344945	1
0	2177	335.578634174254	0
0	2183	336.163719578889	1
0	2184	336.544103344945	0
0	2190	337.064850933873	1
0	2191	337.163719578889	0
0	2194	337.430764864392	1
0	2195	337.430764864392	2
0	2196	337.544103344945	1
0	2198	338.064850933873	0
0	2211	340.289726650788	1
0	2212	340.347801618089	0
0	2218	341.140851021987	1
0	2219	341.289726650788	0
0	2232	343.039839846813	1
0	2233	343.302953448292	0
0	2239	343.871956494037	1
0	2240	344.039839846813	0
0	2260	346.943264739683	1
0	2261	347.801942328796	0
0	2271	348.4817498735	1
0	2272	348.4817498735	2
0	2273	348.801942328796	1
0	2275	349.084290094664	0
0	2281	349.514275696741	1
0	2282	349.801942328796	0
0	2323	357.96574647056	1
0	2324	358.316038458001	0
0	2330	358.593250614736	1
0	2331	358.96574647056	0
0	2334	359.255219766899	1
0	2335	359.255219766899	2
0	2336	359.316038458001	1
0	2338	359.593250614736	0
0	2341	359.906030190176	1
0	2342	359.906030190176	2
0	2343	359.96574647056	1
0	2345	360.316038458001	0
0	2365	364.306737711938	1
0	2366	364.371124462401	0
0	2379	366.756186132166	1
0	2381	366.772847956795	2
0	2382	366.772847956795	3
0	2383	367.002783578343	2
0	2384	367.002783578343	1
0	2387	367.756186132166	0
0	2400	368.929675983941	1
0	2401	369.009505269746	0
0	2414	370.677261184386	1
0	2415	371.090146583024	0
0	2421	371.227168190217	1
0	2422	371.677261184386	0
0	2425	372.071404368176	1
0	2426	372.071404368176	2
0	2427	372.090146583024	1
0	2429	372.227168190217	0
0	2435	373.023992651413	1
0	2436	373.090146583024	0
0	2442	373.607403741673	1
0	2443	374.023992651413	0
0	2453	374.7922295612	1
0	2454	374.7922295612	2
0	2455	375.023992651413	1
0	2458	375.452720807837	2
0	2459	375.452720807837	3
0	2460	375.780708268743	2
0	2461	375.780708268743	1
0	2464	376.023992651413	0
0	2477	377.892728088255	1
0	2478	378.268370169809	0
0	2484	378.824983572098	1
0	2485	378.892728088255	0
0	2491	379.384013554889	1
0	2492	379.824983572098	0
0	2512	383.522703587403	1
0	2513	383.611666072355	0
0	2533	387.064192963675	1
0	2534	387.488150677114	0
0	2540	387.704770076914	1
0	2541	388.064192963675	0
0	2568	393.764674329934	1
0	2569	393.912881612316	0
0	2589	396.954900665489	1
0	2590	397.351149338516	0
0	2596	397.64349982583	1
0	2597	397.954900665489	0
0	2603	398.498849586057	1
0	2604	398.64349982583	0
0	2610	399.038850068714	1
0	2611	399.498849586057	0
0	2621	400.39051611614	1
0	2622	400.39051611614	2
0	2623	400.498849586057	1
0	2626	400.965773024352	2
0	2627	400.965773024352	3
0	2628	401.317918603742	2
0	2629	401.317918603742	1
0	2632	401.498849586057	0
0	2652	405.308194929325	1
0	2653	405.35254064314	0
0	2680	410.04660364914	1
0	2681	410.340004379486	0
0	2694	411.892644044506	1
0	2695	412.413229833079	0
0	2701	412.851747510227	1
0	2702	412.892644044506	0
0	2729	417.230861398043	1
0	2730	417.790279462917	0
0	2764	423.620288360198	1
0	2765	423.953137806514	0
0	2785	427.442511638111	1
0	2786	427.745225332074	0
0	2792	428.022784689659	1
0	2793	428.442511638111	0
0	2799	428.854762281096	1
0	2801	428.900369868074	2
0	2802	428.900369868074	3
0	2803	429.022784689659	2
0	2805	429.442511638111	1
0	2807	429.854762281096	0
0	2820	431.578392975253	1
0	2821	431.649410416642	0
0	2841	435.265763112991	1
0	2842	435.377495263014	0
0	2848	435.92841624691	1
0	2849	436.265763112991	0
0	2855	436.789020319973	1
0	2856	436.92841624691	0
0	2869	439.249917408493	1
0	2871	439.257175599839	2
0	2872	439.257175599839	3
0	2873	439.395990756212	2
0	2874	439.395990756212	1
0	2878	440.180809590406	2
0	2879	440.180809590406	3
0	2880	440.249917408493	2
0	2883	440.373368669346	3
0	2884	440.373368669346	4
0	2885	440.395990756212	3
0	2886	440.395990756212	2
0	2889	441.249917408493	1
0	2892	441.284726806436	2
0	2893	441.284726806436	3
0	2894	441.395990756212	2
0	2895	441.395990756212	1
0	2898	442.249917408493	0
0	2911	443.544167491243	1
0	2912	443.67771677887	0
0	2925	445.392254602753	1
0	2926	445.849243214619	0
0	2939	447.929097012316	1
0	2940	448.594159428655	0
0	2946	448.645926343074	1
0	2947	448.929097012316	0
0	2967	452.404882504725	1
0	2968	452.547378166729	0
0	2974	453.381437054373	1
0	2975	453.404882504725	0
0	3002	457.560223448972	1
0	3003	457.820130473922	0
0	3030	461.999283066902	1
0	3031	462.235984593105	0
0	3058	466.827469010066	1
0	3059	466.997741529067	0
0	3065	467.707970738652	1
0	3066	467.827469010066	0
0	3079	469.629799802143	1
0	3080	470.019040440036	0
0	3093	471.75664869088	1
0	3094	471.818368135171	0
0	3100	472.392930724043	1
0	3101	472.75664869088	0
0	3107	473.184042348612	1
0	3108	473.392930724043	0
0	3114	474.101947973622	1
0	3115	474.184042348612	0
0	3142	478.300442374255	1
0	3143	479.042749026707	0
0	3156	480.448307306546	1
0	3157	480.68567163471	0
0	3191	488.931766003038	1
0	3192	489.587772903234	0
0	3205	490.844327793201	1
0	3207	491.027509141443	2
0	3208	491.027509141443	3
0	3209	491.422401424946	2
0	3210	491.422401424946	1
0	3213	491.844327793201	0
0	3216	491.922503151734	1
0	3217	491.922503151734	2
0	3218	492.422401424946	1
0	3219	492.422401424946	0
0	3223	492.454569364582	1
0	3224	492.454569364582	2
0	3225	492.844327793201	1
0	3227	493.422401424946	0
0	3240	494.495777066959	1
0	3241	495.013647956754	0
0	3268	498.475659405624	1
0	3269	499.295830975646	0
0	3282	500.560579766969	1
0	3283	500.566885875891	0
0	3317	506.890272922674	1
0	3318	507.674051903278	0
0	3324	507.87422181971	1
0	3325	507.890272922674	0
0	3338	510.501044613144	1
0	3339	510.789385459509	0
0	3352	512.155591011578	1
0	3354	512.408935480569	2
0	3355	512.408935480569	3
0	3356	512.845343805948	2
0	3357	512.845343805948	1
0	3361	513.094726402351	2
0	3362	513.094726402351	3
0	3363	513.155591011578	2
0	3365	513.845343805948	1
0	3366	513.845343805948	0
0	3380	515.245997800724	1
0	3382	515.750601900248	2
0	3383	515.750601900248	3
0	3384	515.983250104158	2
0	3385	515.983250104158	1
0	3388	516.245997800724	0
0	3429	524.327267588305	1
0	3430	524.479288482832	0
0	3436	525.22390449986	1
0	3437	525.327267588305	0
0	3443	525.632972614848	1
0	3444	526.22390449986	0
0	3478	531.456506983696	1
0	3479	531.709522353195	0
0	3492	532.880050868331	1
0	3493	533.570915201848	0
0	3499	533.862574841806	1
0	3500	533.880050868331	0
0	3527	538.445762329198	1
0	3528	539.186818843166	0
0	3534	539.405603523322	1
0	3535	539.445762329198	0
0	3548	540.830414292848	1
0	3549	541.406262363318	0
0	3590	548.762303986015	1
0	3591	548.950441540885	0
0	3597	549.761610052611	1
0	3598	549.762303986015	0
0	3618	552.62773964222	1
0	3619	552.900525043979	0
0	3625	553.01924263703	1
0	3626	553.62773964222	0
0	3629	553.770173432135	1
0	3630	553.770173432135	2
0	3631	553.900525043979	1
0	3633	554.01924263703	0
0	3636	554.621770319343	1
0	3637	554.621770319343	2
0	3638	554.62773964222	1
0	3640	554.900525043979	0
0	3646	555.436253829871	1
0	3648	555.526936819973	2
0	3649	555.526936819973	3
0	3650	555.62773964222	2
0	3652	555.900525043979	1
0	3654	556.436253829871	0
0	3667	557.819940666306	1
0	3669	558.159398594247	2
0	3670	558.159398594247	3
0	3671	558.717487387505	2
0	3672	558.717487387505	1
0	3675	558.819940666306	0
0	3678	559.213741762101	1
0	3679	559.213741762101	2
0	3680	559.717487387505	1
0	3681	559.717487387505	0
0	3695	561.551534977141	1
0	3696	561.722514275897	0
0	3702	562.184623611663	1
0	3703	562.551534977141	0
0	3716	563.780463989701	1
0	3717	564.201669486331	0
0	3727	564.958424780445	1
0	3728	564.958424780445	2
0	3729	565.201669486331	1
0	3731	565.875406058335	0
0	3751	568.280543277079	1
0	3752	568.337837752732	0
0	3758	568.864941980158	1
0	3760	569.16468903859	2
0	3761	569.16468903859	3
0	3762	569.280543277079	2
0	3764	569.337837752732	1
0	3766	569.864941980158	0
0	3779	571.894065710302	1
0	3780	572.159880156213	0
0	3786	572.624766398664	1
0	3787	572.894065710302	0
0	3793	573.457522564116	1
0	3794	573.624766398664	0
0	3800	574.104598042376	1
0	3801	574.457522564116	0
0	3828	580.041412446418	1
0	3829	580.31155026713	0
0	3849	584.831640049721	1
0	3850	584.873245398125	0
0	3863	586.301812284983	1
0	3864	586.891025787357	0
0	3870	587.066716187194	1
0	3871	587.301812284983	0
0	3884	589.333477120551	1
0	3886	589.364133564841	2
0	3887	589.364133564841	3
0	3888	589.404567287922	2
0	3889	589.404567287922	1
0	3892	590.333477120551	0
0	3912	592.810306793927	1
0	3913	593.077041547724	0
0	3919	593.702729896123	1
0	3920	593.810306793927	0
0	3933	595.968740055944	1
0	3934	596.337575668825	0
0	3947	597.501769184422	1
0	3948	598.269727014161	0
0	3961	599.692882157387	1
0	3962	599.753496066225	0
0	3996	606.704234100916	1
0	3997	606.768869925034	0
0	4010	608.775338818029	1
0	4011	608.887237780503	0
0	4024	610.88368270772	1
0	4025	610.937412405516	0
0	4031	611.774049171469	1
0	4032	611.88368270772	0
0	4038	612.717237711547	1
0	4039	612.774049171469	0
0	4045	613.483956441252	1
0	4046	613.717237711547	0
0	4052	613.999775096933	1
0	4053	614.483956441252	0
0	4059	614.825332431126	1
0	4060	614.999775096933	0
0	4073	616.883737464088	1
0	4074	616.89441509256	0
0	4094	621.869457823757	1
0	4095	622.169166298467	0
0	4101	622.824530179557	1
0	4102	622.869457823757	0
0	4108	623.570916631039	1
0	4109	623.824530179557	0
0	4115	624.032575723704	1
0	4117	624.202073426973	2
0	4118	624.202073426973	3
0	4119	624.570916631039	2
0	4121	624.824530179557	1
0	4124	625.02583484041	2
0	4125	625.02583484041	3
0	4126	625.032575723704	2
0	4128	625.570916631039	1
0	4130	625.824530179557	0
0	4133	625.934787360018	1
0	4134	625.934787360018	2
0	4135	626.032575723704	1
0	4137	626.570916631039	0
0	4140	626.727075483638	1
0	4141	626.727075483638	2
0	4142	626.824530179557	1
0	4144	627.032575723704	0
0	4147	627.085594491624	1
0	4148	627.085594491624	2
0	4149	627.570916631039	1
0	4152	627.757204937498	2
0	4153	627.757204937498	3
0	4154	627.824530179557	2
0	4156	628.032575723704	1
0	4159	628.422355511609	2
0	4160	628.422355511609	3
0	4161	628.570916631039	2
0	4163	628.824530179557	1
0	4165	629.032575723704	0
0	4168	629.186702648313	1
0	4169	629.186702648313	2
0	4170	629.570916631039	1
0	4172	629.824530179557	0
0	4175	629.862907261558	1
0	4176	629.862907261558	2
0	4177	630.032575723704	1
0	4179	630.570916631039	0
0	4182	630.786688199171	1
0	4183	630.786688199171	2
0	4184	630.824530179557	1
0	4186	631.032575723704	0
0	4206	633.78311499858	1
0	4208	634.403598044084	2
0	4209	634.403598044084	3
0	4210	634.50933671769	2
0	4211	634.50933671769	1
0	4214	634.78311499858	0
0	4241	638.8935765691	1
0	4242	639.41434290436	0
0	4248	639.882670316067	1
0	4249	639.8935765691	0
0	4262	641.740911877684	1
0	4264	641.811480159245	2
0	4265	641.811480159245	3
0	4266	642.074815343888	2
0	4267	642.074815343888	1
0	4270	642.740911877684	0
0	4297	648.011585389095	1
0	4298	648.220377676353	0
0	4304	648.618558214891	1
0	4305	649.011585389095	0
0	4308	649.155014308887	1
0	4309	649.155014308887	2
0	4310	649.220377676353	1
0	4312	649.618558214891	0
0	4325	651.475092948348	1
0	4326	651.50842086297	0
0	4339	653.558559487045	1
0	4340	653.989505860233	0
0	4353	655.829063289482	1
0	4354	656.083371322563	0
0	4374	658.198295055747	1
0	4375	659.051258464334	0
0	4381	659.104150688261	1
0	4382	659.198295055747	0
0	4385	659.927632555044	1
0	4386	659.927632555044	2
0	4387	660.051258464334	1
0	4389	660.104150688261	0
0	4395	660.595923461516	1
0	4396	661.051258464334	0
0	4402	661.111468604101	1
0	4403	661.595923461516	0
0	4406	662.030405867425	1
0	4407	662.030405867425	2
0	4408	662.051258464334	1
0	4410	662.111468604101	0
0	4472	675.897148007289	1
0	4473	676.235804080733	0
0	4486	678.423771217623	1
0	4487	678.815021783551	0
0	4493	678.901448534431	1
0	4494	679.423771217623	0
0	4507	680.931922413782	1
0	4508	681.015145517086	0
0	4528	684.045189051115	1
0	4529	684.451993179124	0
0	4549	687.685415686522	1
0	4551	687.929741245598	2
0	4552	687.929741245598	3
0	4553	688.165993104272	2
0	4554	688.165993104272	1
0	4557	688.685415686522	0
0	4577	691.868696266116	1
0	4578	691.9527963737	0
0	4591	693.206326242049	1
0	4592	693.905938807359	0
0	4598	694.127881163591	1
0	4599	694.206326242049	0
0	4619	697.26576314696	1
0	4620	697.660665110643	0
0	4626	697.768201607925	1
0	4627	698.26576314696	0
0	4630	698.3657135981	1
0	4631	698.3657135981	2
0	4632	698.660665110643	1
0	4635	698.749228124461	2
0	4636	698.749228124461	3
0	4637	698.768201607925	2
0	4639	699.26576314696	1
0	4641	699.660665110643	0
0	4644	699.716433205787	1
0	4645	699.716433205787	2
0	4646	699.768201607925	1
0	4649	699.886669888988	2
0	4650	699.886669888988	3
0	4651	700.26576314696	2
0	4653	700.660665110643	1
0	4655	700.768201607925	0
0	4661	701.649548066566	1
0	4662	701.660665110643	0
0	4675	703.838379749625	1
0	4676	703.956181022666	0
0	4689	705.584533260191	1
0	4690	706.133316828761	0
0	4703	707.216131834459	1
0	4704	707.686775518949	0
0	4717	709.869219175053	1
0	4718	710.353350491294	0
0	4738	713.013783898893	1
0	4739	713.392269813868	0
0	4759	716.057889250044	1
0	4760	716.301240422001	0
0	4766	716.811357997531	1
0	4767	717.057889250044	0
0	4780	718.482220695976	1
0	4781	718.96820173255	0
0	4794	720.577848740786	1
0	4795	720.879127574787	0
0	4801	721.377980842065	1
0	4802	721.577848740786	0
0	4829	726.202402321797	1
0	4830	726.918896963508	0
0	4836	726.920221614917	1
0	4837	727.202402321797	0
0	4840	727.829615643076	1
0	4841	727.829615643076	2
0	4842	727.918896963508	1
0	4844	727.920221614917	0
0	4850	728.255749281161	1
0	4852	728.404605742848	2
0	4853	728.404605742848	3
0	4854	728.918896963508	2
0	4856	728.920221614917	1
0	4858	729.255749281161	0
0	4861	729.332743016757	1
0	4862	729.332743016757	2
0	4863	729.918896963508	1
0	4865	729.920221614917	0
0	4871	730.544112133704	1
0	4873	730.890266529889	2
0	4874	730.890266529889	3
0	4875	730.918896963508	2
0	4877	730.920221614917	1
0	4879	731.544112133704	0
0	4948	744.865820010535	1
0	4949	745.373228576324	0
0	4955	745.632726207672	1
0	4956	745.865820010535	0
0	4962	746.566307196267	1
0	4963	746.632726207672	0
0	4990	751.535469745944	1
0	4991	751.968365935838	0
0	5004	753.716221317441	1
0	5005	753.942092396572	0
0	5011	754.428757242598	1
0	5012	754.716221317441	0
0	5025	756.359185923676	1
0	5026	756.478307578913	0
0	5032	756.681629250477	1
0	5033	757.359185923676	0
0	5060	761.636778999273	1
0	5062	761.870538727308	2
0	5063	761.870538727308	3
0	5064	761.905022296835	2
0	5065	761.905022296835	1
0	5069	762.543664013007	2
0	5070	762.543664013007	3
0	5071	762.636778999273	2
0	5073	762.905022296835	1
0	5074	762.905022296835	0
0	5095	766.432290113452	1
0	5096	766.904699702898	0
0	5102	767.152371067787	1
0	5103	767.432290113452	0
0	5106	767.849598642047	1
0	5107	767.849598642047	2
0	5109	767.890060214368	3
0	5110	767.890060214368	4
0	5111	767.904699702898	3
0	5114	767.999815035015	4
0	5115	767.999815035015	5
0	5116	768.152371067787	4
0	5118	768.432290113452	3
0	5120	768.904699702898	2
0	5123	768.920746425274	3
0	5124	768.920746425274	4
0	5125	769.152371067787	3
0	5127	769.432290113452	2
0	5129	769.904699702898	1
0	5131	770.152371067787	0
0	5165	778.197088961843	1
0	5167	778.389671747598	2
0	5168	778.389671747598	3
0	5169	778.406148874554	2
0	5170	778.406148874554	1
0	5174	778.885279164424	2
0	5175	778.885279164424	3
0	5176	779.197088961843	2
0	5178	779.406148874554	1
0	5179	779.406148874554	0
0	5183	779.852202501087	1
0	5184	779.852202501087	2
0	5185	780.197088961843	1
0	5187	780.406148874554	0
0	5193	781.169188277435	1
0	5194	781.197088961843	0
0	5214	784.428039529477	1
0	5215	784.968745036417	0
0	5242	788.976432925939	1
0	5243	788.998515307668	0
0	5249	789.869514084661	1
0	5250	789.976432925939	0
0	5277	795.312056442038	1
0	5278	795.390073308634	0
0	5284	796.264902914708	1
0	5285	796.312056442038	0
0	5291	796.931991652546	1
0	5292	797.264902914708	0
0	5326	803.27898598599	1
0	5327	803.641132857148	0
0	5361	809.96399561837	1
0	5362	809.976275421785	0
0	5368	810.780399183493	1
0	5369	810.96399561837	0
0	5382	813.084269218692	1
0	5383	813.53486415249	0
0	5417	820.023166905127	1
0	5418	820.274505445807	0
0	5424	820.898740952246	1
0	5425	821.023166905127	0
0	5431	821.832735622368	1
0	5432	821.898740952246	0
0	5438	822.530917735707	1
0	5439	822.832735622368	0
0	5445	823.247912880233	1
0	5446	823.530917735707	0
0	5449	823.681488907898	1
0	5450	823.681488907898	2
0	5451	823.832735622368	1
0	5453	824.247912880233	0
0	5459	824.734356847566	1
0	5460	824.832735622368	0
0	5466	825.481191396639	1
0	5467	825.734356847566	0
0	5470	825.796187579678	1
0	5471	825.796187579678	2
0	5472	825.832735622368	1
0	5474	826.481191396639	0
0	5522	835.502940770417	1
0	5523	836.140638726939	0
0	5543	839.037530468656	1
0	5544	839.096853922253	0
0	5550	839.715489720092	1
0	5551	840.037530468656	0
0	5554	840.081588478545	1
0	5555	840.081588478545	2
0	5556	840.096853922253	1
0	5558	840.715489720092	0
0	5561	840.784842247395	1
0	5562	840.784842247395	2
0	5563	841.037530468656	1
0	5565	841.096853922253	0
0	5578	842.575921594315	1
0	5579	843.195826779134	0
0	5592	844.821843048407	1
0	5593	844.95895043895	0
0	5599	845.7911992214	1
0	5600	845.821843048407	0
0	5613	847.629627020387	1
0	5614	848.556537470029	0
0	5641	853.497856153676	1
0	5642	853.881173017369	0
0	5648	854.455191856534	1
0	5649	854.497856153676	0
0	5683	861.120050974763	1
0	5684	861.298114814711	0
0	5711	866.589010156026	1
0	5712	866.699357413642	0
0	5718	867.34854823416	1
0	5719	867.589010156026	0
0	5732	869.186116736781	1
0	5733	869.951928311042	0
0	5746	871.567565875396	1
0	5748	871.875498389264	2
0	5749	871.875498389264	3
0	5750	872.284917846676	2
0	5751	872.284917846676	1
0	5754	872.567565875396	0
0	5774	876.215048507019	1
0	5776	876.624819039163	2
0	5777	876.624819039163	3
0	5778	876.794795748717	2
0	5779	876.794795748717	1
0	5782	877.215048507019	0
0	5802	881.517751014827	1
0	5803	882.451959317925	0
0	5816	883.60103442354	1
0	5817	883.658269030159	0
0	5823	884.107511165539	1
0	5824	884.60103442354	0
0	5830	884.919268843748	1
0	5831	885.107511165539	0
0	5858	890.107173805278	1
0	5859	890.259975483062	0
0	5872	891.582906274575	1
0	5873	892.232989496856	0
0	5879	892.414555776976	1
0	5880	892.582906274575	0
0	5907	896.748485016621	1
0	5908	897.242770277862	0
0	5914	897.743385794207	1