version 3
run MMc-7-20221127-11:38:40-7588
attr configname MMc
attr datetime 20221127-11:38:40
attr datetimef 20221127-113840
attr experiment MMc
attr inifile omnetpp.ini
attr iterationvars "$mean=uniform(0.5s, 1.5s), $dev=0.5*(uniform(0.5s, 1.5s)), $time=1.0, $num=3, $0=33434, $1=56673, $2=23567"
attr iterationvarsd mean=uniform(0.5s,_1.5s)/dev=0.5#2a(uniform(0.5s,_1.5s))/time=1.0/num=3/33434/56673/23567
attr iterationvarsf mean=uniform(0.5s,_1.5s),dev=0.5#2a(uniform(0.5s,_1.5s)),time=1.0,num=3,33434,56673,23567-
attr measurement "$mean=uniform(0.5s, 1.5s), $dev=0.5*(uniform(0.5s, 1.5s)), $time=1.0, $num=3, $0=33434, $1=56673, $2=23567"
attr network MMc
attr processid 7588
attr repetition 3
attr replication #3
attr resultdir results
attr runnumber 7
attr seedset 7
itervar dev "0.5*(uniform(0.5s, 1.5s))"
itervar mean "uniform(0.5s, 1.5s)"
itervar num 3
itervar time 1.0
config description "MMc module"
config network MMc
config MMc.source.interArrivalTime "truncnormal(uniform(0.5s, 1.5s), 0.5*(uniform(0.5s, 1.5s)))"
config MMc.mmc.serviceTime 1.0s
config MMc.mmc.c 3
config MMc.mmc.capacity 10000
config record-eventlog false
config **.scalar-recording true
config **.vector-recording true
config repeat 4
config seed-1-mt 33434
config seed-2-mt 56673
config seed-3-mt 23567
config output-vector-file MMc-3-1.0-results/3.vec
config output-scalar-file MMc-3-1.0-results/3.sca

vector 0 MMc.mmc queueLength:vector ETV
attr interpolationmode none
attr recordingmode vector
attr title "queue length"
vector 1 MMc.mmc util:vector ETV
attr interpolationmode none
attr recordingmode vector
attr title resources
0	0	0	0
0	6	10.310588179966	1
0	8	10.521073388469	2
0	9	10.521073388469	3
0	10	11	2
0	11	11	1
0	14	11.310588179966	0
0	17	11.944731331819	1
0	18	11.944731331819	2
0	19	12	1
0	20	12	0
0	27	12.87842504438	1
0	28	13	0
0	41	15.390042294447	1
0	42	15.404517458025	0
0	48	15.728960538622	1
0	49	16.390042294447	0
0	62	17.725470940931	1
0	63	17.903967341066	0
0	69	18.224321670107	1
0	70	18.725470940931	0
0	90	22.454538769675	1
0	91	23.253775351665	0
0	104	24.692775220716	1
0	105	24.927100361659	0
0	118	27.106237683664	1
0	119	27.196007873275	0
0	139	30.785954431544	1
0	140	31.316301364418	0
0	146	31.517889308171	1
0	148	31.668656018047	2
0	149	31.668656018047	3
0	150	31.785954431544	2
0	152	32.316301364418	1
0	154	32.517889308171	0
0	174	35.363045900136	1
0	175	35.541051799045	0
0	181	35.849885130484	1
0	182	36.363045900136	0
0	188	36.547492513768	1
0	190	36.810452772633	2
0	191	36.810452772633	3
0	192	36.849885130484	2
0	194	37.363045900136	1
0	196	37.547492513768	0
0	199	37.707899882511	1
0	200	37.707899882511	2
0	201	37.849885130484	1
0	203	38.363045900136	0
0	216	40.189080597523	1
0	217	40.802349954699	0
0	230	42.274977010299	1
0	231	42.544051072135	0
0	244	44.272210016772	1
0	245	44.278167948922	0
0	258	45.958446522912	1
0	260	46.052922020237	2
0	261	46.052922020237	3
0	262	46.329163127576	2
0	263	46.329163127576	1
0	266	46.958446522912	0
0	269	46.961965134649	1
0	270	46.961965134649	2
0	271	47.329163127576	1
0	272	47.329163127576	0
0	276	47.589930954289	1
0	277	47.589930954289	2
0	278	47.958446522912	1
0	280	48.329163127576	0
0	328	56.585689633125	1
0	329	57.094559818885	0
0	342	58.832225569908	1
0	343	58.889506805515	0
0	363	62.49796032518	1
0	365	62.729367045714	2
0	366	62.729367045714	3
0	367	63.236242168269	2
0	368	63.236242168269	1
0	371	63.49796032518	0
0	374	63.748664815273	1
0	375	63.748664815273	2
0	377	64.051381327582	3
0	378	64.051381327582	4
0	379	64.236242168269	3
0	380	64.236242168269	2
0	383	64.49796032518	1
0	385	65.236242168269	0
0	395	66.100225417111	1
0	396	66.100225417111	2
0	397	66.236242168269	1
0	399	66.887022319277	0
0	409	67.463420557708	1
0	410	67.463420557708	2
0	411	67.887022319277	1
0	414	67.949744420497	2
0	415	67.949744420497	3
0	416	68.33448499074	2
0	417	68.33448499074	1
0	420	68.887022319277	0
0	423	69.330488087082	1
0	424	69.330488087082	2
0	425	69.33448499074	1
0	426	69.33448499074	0
0	430	69.434604218636	1
0	431	69.434604218636	2
0	432	69.887022319277	1
0	434	70.33448499074	0
0	440	70.877407682007	1
0	441	70.887022319277	0
0	482	80.198381254483	1
0	483	80.219146209021	0
0	489	80.437344528444	1
0	490	81.198381254483	0
0	503	82.672445363858	1
0	504	82.812970321371	0
0	510	83.559468958498	1
0	511	83.672445363858	0
0	514	83.791813251524	1
0	515	83.791813251524	2
0	516	83.812970321371	1
0	518	84.559468958498	0
0	524	84.699927050143	1
0	525	84.812970321371	0
0	531	85.654468242464	1
0	532	85.699927050143	0
0	545	88.638307033851	1
0	546	88.666245552995	0
0	552	88.860038558492	1
0	553	89.638307033851	0
0	566	91.126778070066	1
0	567	91.608032801267	0
0	580	92.919657164271	1
0	582	93.444392584778	2
0	583	93.444392584778	3
0	584	93.831875964185	2
0	585	93.831875964185	1
0	588	93.919657164271	0
0	608	96.793654837209	1
0	609	97.051029639473	0
0	615	97.673148611261	1
0	616	97.793654837209	0
0	622	98.206738893166	1
0	623	98.673148611261	0
0	629	99.129243769205	1
0	630	99.206738893166	0
0	633	99.356734423014	1
0	634	99.356734423014	2
0	635	99.673148611261	1
0	637	100.129243769205	0
0	650	101.489114772293	1
0	651	101.72614439784	0
0	664	103.315909347867	1
0	665	103.525930059555	0
0	685	106.858767964723	1
0	686	107.150916444005	0
0	706	110.685352888603	1
0	708	111.035389474241	2
0	709	111.035389474241	3
0	710	111.067584460183	2
0	711	111.067584460183	1
0	714	111.685352888603	0
0	734	114.186976958229	1
0	735	114.658183173142	0
0	741	114.981406516109	1
0	742	115.186976958229	0
0	762	118.507408168149	1
0	763	118.547255723439	0
0	769	119.35735326563	1
0	770	119.507408168149	0
0	783	121.428458087931	1
0	784	121.492326920248	0
0	797	124.37118002621	1
0	798	124.679227960416	0
0	804	125.328247165742	1
0	805	125.37118002621	0
0	811	126.129417127003	1
0	812	126.328247165742	0
0	846	132.414268360779	1
0	847	132.972382181373	0
0	860	134.666331042965	1
0	861	134.723086766716	0
0	881	137.168991966729	1
0	883	137.43515146607	2
0	884	137.43515146607	3
0	885	138.034475555664	2
0	886	138.034475555664	1
0	889	138.168991966729	0
0	892	138.556777618612	1
0	893	138.556777618612	2
0	894	139.034475555664	1
0	895	139.034475555664	0
0	909	141.238056008056	1
0	910	141.340778643285	0
0	916	141.788818863406	1
0	917	142.238056008056	0
0	930	143.438986959188	1
0	931	143.828882987961	0
0	937	144.179712865564	1
0	938	144.438986959188	0
0	951	146.054459982252	1
0	952	146.312468210701	0
0	965	148.613824167004	1
0	966	148.644029336379	0
0	979	150.098097140363	1
0	980	150.832098245871	0
0	986	150.86666006067	1
0	987	151.098097140363	0
0	993	151.847912294596	1
0	994	151.86666006067	0
0	1000	152.575302179482	1
0	1001	152.847912294596	0
0	1007	153.149054826358	1
0	1008	153.575302179482	0
0	1028	155.942901362363	1
0	1029	156.718892532404	0
0	1042	158.325932900788	1
0	1043	158.350814993162	0
0	1056	160.206319148425	1
0	1058	160.237065143726	2
0	1059	160.237065143726	3
0	1060	160.898501300211	2
0	1061	160.898501300211	1
0	1064	161.206319148425	0
0	1067	161.669844182808	1
0	1068	161.669844182808	2
0	1069	161.898501300211	1
0	1070	161.898501300211	0
0	1091	166.422644645748	1
0	1093	166.922932403135	2
0	1094	166.922932403135	3
0	1095	167.088410800918	2
0	1096	167.088410800918	1
0	1099	167.422644645748	0
0	1102	168.055149715272	1
0	1103	168.055149715272	2
0	1104	168.088410800918	1
0	1105	168.088410800918	0
0	1126	171.546780389327	1
0	1127	171.718975892722	0
0	1133	171.774836725405	1
0	1135	172.19419055809	2
0	1136	172.19419055809	3
0	1137	172.546780389327	2
0	1139	172.718975892722	1
0	1141	172.774836725405	0
0	1144	173.299418990809	1
0	1145	173.299418990809	2
0	1146	173.546780389327	1
0	1148	173.718975892722	0
0	1154	174.414568119851	1
0	1155	174.546780389327	0
0	1168	176.492905063383	1
0	1169	176.698836723802	0
0	1182	178.530672106645	1
0	1183	178.865039771899	0
0	1203	181.848925019779	1
0	1204	182.361837233305	0
0	1217	183.653559693048	1
0	1218	184.182785630161	0
0	1231	185.956880300445	1
0	1232	186.097065073965	0
0	1238	186.94286513885	1
0	1239	186.956880300445	0
0	1252	188.974153528864	1
0	1253	189.66191501162	0
0	1266	190.765498672883	1
0	1268	191.225034503064	2
0	1269	191.225034503064	3
0	1270	191.365827241886	2
0	1271	191.365827241886	1
0	1274	191.765498672883	0
0	1277	191.965188303727	1
0	1278	191.965188303727	2
0	1279	192.365827241886	1
0	1280	192.365827241886	0
0	1284	192.746210099609	1
0	1285	192.746210099609	2
0	1286	192.765498672883	1
0	1288	193.365827241886	0
0	1301	194.588171066521	1
0	1303	194.911049595059	2
0	1304	194.911049595059	3
0	1305	195.175845903628	2
0	1306	195.175845903628	1
0	1309	195.588171066521	0
0	1322	196.6897367552	1
0	1323	197.366627658637	0
0	1343	200.681861334596	1
0	1344	201.228349089302	0
0	1350	201.554503494342	1
0	1351	201.681861334596	0
0	1354	201.970112397141	1
0	1355	201.970112397141	2
0	1357	202.144112363932	3
0	1358	202.144112363932	4
0	1359	202.228349089302	3
0	1361	202.554503494342	2
0	1363	202.681861334596	1
0	1365	203.228349089302	0
0	1371	203.657574740429	1
0	1372	203.681861334596	0
0	1406	211.12595572406	1
0	1408	211.618300800303	2
0	1409	211.618300800303	3
0	1410	211.626141965893	2
0	1411	211.626141965893	1
0	1415	211.983846355222	2
0	1416	211.983846355222	3
0	1417	212.12595572406	2
0	1419	212.626141965893	1
0	1420	212.626141965893	0
0	1476	225.926471500308	1
0	1477	226.029647747384	0
0	1483	226.24210422057	1
0	1484	226.926471500308	0
0	1497	228.321719537094	1
0	1498	228.704994739625	0
0	1511	230.757484547825	1
0	1512	230.838260438329	0
0	1518	231.165305173845	1
0	1519	231.757484547825	0
0	1546	235.989023369791	1
0	1548	236.402883129943	2
0	1549	236.402883129943	3
0	1550	236.827139022921	2
0	1551	236.827139022921	1
0	1554	236.989023369791	0
0	1557	237.68074257102	1
0	1558	237.68074257102	2
0	1559	237.827139022921	1
0	1560	237.827139022921	0
0	1567	238.538664184882	1
0	1568	238.827139022921	0
0	1581	240.820725076632	1
0	1582	240.960445224672	0
0	1609	245.775469200384	1
0	1611	245.929232929498	2
0	1612	245.929232929498	3
0	1613	246.046676842229	2
0	1614	246.046676842229	1
0	1618	246.328154960414	2
0	1619	246.328154960414	3
0	1620	246.775469200384	2
0	1622	247.046676842229	1
0	1623	247.046676842229	0
0	1627	247.074534297956	1
0	1628	247.074534297956	2
0	1629	247.775469200384	1
0	1631	248.046676842229	0
0	1637	248.50042641491	1
0	1638	248.775469200384	0
0	1644	249.18690847704	1
0	1645	249.50042641491	0
0	1648	249.723565974847	1
0	1649	249.723565974847	2
0	1650	249.775469200384	1
0	1652	250.18690847704	0
0	1658	250.597686361134	1
0	1659	250.775469200384	0
0	1679	254.59828488372	1
0	1680	254.608463593716	0
0	1686	254.769333224686	1
0	1687	255.59828488372	0
0	1735	265.477689785947	1
0	1736	266.080452038379	0
0	1746	266.924604527912	1
0	1747	266.924604527912	2
0	1748	267.080452038379	1
0	1751	267.423308286172	2
0	1752	267.423308286172	3
0	1753	267.677995734149	2
0	1754	267.677995734149	1
0	1757	268.080452038379	0
0	1760	268.095321149379	1
0	1761	268.095321149379	2
0	1762	268.677995734149	1
0	1763	268.677995734149	0
0	1770	269.525889283643	1
0	1771	269.677995734149	0
0	1784	272.007031302478	1
0	1785	272.671569402342	0
0	1805	275.358901574084	1
0	1806	275.452880961814	0
0	1812	275.580672640237	1
0	1813	276.358901574084	0
0	1816	276.42516137465	1
0	1817	276.42516137465	2
0	1818	276.452880961814	1
0	1820	276.580672640237	0
0	1823	276.836459247719	1
0	1824	276.836459247719	2
0	1825	277.358901574084	1
0	1827	277.452880961814	0
0	1833	278.338049604548	1
0	1834	278.358901574084	0
0	1840	278.497650069759	1
0	1842	279.115444621473	2
0	1843	279.115444621473	3
0	1844	279.338049604548	2
0	1846	279.358901574084	1
0	1848	279.497650069759	0
0	1868	283.025768195007	1
0	1870	283.082769782121	2
0	1871	283.082769782121	3
0	1873	283.175165157442	4
0	1874	283.175165157442	5
0	1875	283.577053227661	4
0	1876	283.577053227661	3
0	1879	284.025768195007	2
0	1882	284.18673196954	3
0	1883	284.18673196954	4
0	1884	284.577053227661	3
0	1885	284.577053227661	2
0	1889	284.935791857982	3
0	1890	284.935791857982	4
0	1891	285.025768195007	3
0	1894	285.398536180983	4
0	1895	285.398536180983	5
0	1896	285.577053227661	4
0	1897	285.577053227661	3
0	1900	286.025768195007	2
0	1903	286.533988377867	3
0	1904	286.533988377867	4
0	1905	286.577053227661	3
0	1906	286.577053227661	2
0	1909	287.025768195007	1
0	1912	287.344926110581	2
0	1913	287.344926110581	3
0	1914	287.577053227661	2
0	1915	287.577053227661	1
0	1918	288.025768195007	0
0	1921	288.337339148676	1
0	1922	288.337339148676	2
0	1923	288.577053227661	1
0	1924	288.577053227661	0
0	1945	291.205597574857	1
0	1946	291.798625346679	0
0	1956	292.606619390557	1
0	1957	292.606619390557	2
0	1958	292.798625346679	1
0	1961	293.318439024477	2
0	1962	293.318439024477	3
0	1963	293.38001500212	2
0	1964	293.38001500212	1
0	1967	293.798625346679	0
0	1970	294.325418075418	1
0	1971	294.325418075418	2
0	1972	294.38001500212	1
0	1973	294.38001500212	0
0	2029	305.897355114121	1
0	2031	305.918703340764	2
0	2032	305.918703340764	3
0	2033	306.226866261148	2
0	2034	306.226866261148	1
0	2037	306.897355114121	0
0	2040	307.169202011133	1
0	2041	307.169202011133	2
0	2042	307.226866261148	1
0	2043	307.226866261148	0
0	2064	309.982221080931	1
0	2065	310.806691774593	0
0	2075	311.730001840821	1
0	2076	311.730001840821	2
0	2077	311.806691774593	1
0	2079	312.36140166853	0
0	2085	312.763164459567	1
0	2086	312.806691774593	0
0	2099	315.067760022088	1
0	2100	315.681466755711	0
0	2120	319.33702963378	1
0	2121	319.437343643096	0
0	2127	319.691532721505	1
0	2128	320.33702963378	0
0	2131	320.377821525508	1
0	2132	320.377821525508	2
0	2133	320.437343643096	1
0	2135	320.691532721505	0
0	2169	325.720501504209	1
0	2170	325.840384323547	0
0	2183	327.386794613092	1
0	2184	327.873156732088	0
0	2197	330.148483527145	1
0	2198	330.495935711609	0
0	2211	332.437703956797	1
0	2212	332.876166669878	0
0	2232	335.859218955624	1
0	2233	336.527173408649	0
0	2239	336.615284220925	1
0	2240	336.859218955624	0
0	2253	338.383650604888	1
0	2254	338.773546951682	0
0	2260	338.889095419487	1
0	2261	339.383650604888	0
0	2264	339.716548201191	1
0	2265	339.716548201191	2
0	2266	339.773546951682	1
0	2268	339.889095419487	0
0	2288	342.915509888312	1
0	2290	343.394811443206	2
0	2291	343.394811443206	3
0	2292	343.89564110437	2
0	2293	343.89564110437	1
0	2296	343.915509888312	0
0	2299	344.13073124109	1
0	2300	344.13073124109	2
0	2301	344.89564110437	1
0	2302	344.89564110437	0
0	2309	345.826776426491	1
0	2310	345.89564110437	0
0	2316	346.588602903499	1
0	2317	346.826776426491	0
0	2351	352.765090357688	1
0	2352	353.16224197213	0
0	2379	358.474507468913	1
0	2380	358.495315859584	0
0	2407	362.77125545559	1
0	2409	363.124683705959	2
0	2410	363.124683705959	3
0	2411	363.344585055382	2
0	2412	363.344585055382	1
0	2415	363.77125545559	0
0	2435	365.705644588775	1
0	2437	366.484116180574	2
0	2438	366.484116180574	3
0	2439	366.694028706699	2
0	2440	366.694028706699	1
0	2443	366.705644588775	0
0	2463	369.608978008055	1
0	2465	369.818626622947	2
0	2466	369.818626622947	3
0	2467	370.50931063906	2
0	2468	370.50931063906	1
0	2472	370.601338437405	2
0	2473	370.601338437405	3
0	2474	370.608978008055	2
0	2477	371.023957966524	3
0	2478	371.023957966524	4
0	2479	371.50931063906	3
0	2480	371.50931063906	2
0	2483	371.608978008055	1
0	2486	371.964529238021	2
0	2487	371.964529238021	3
0	2488	372.50931063906	2
0	2489	372.50931063906	1
0	2492	372.608978008055	0
0	2495	373.215790428655	1
0	2496	373.215790428655	2
0	2497	373.50931063906	1
0	2498	373.50931063906	0
0	2505	374.077746973512	1
0	2506	374.50931063906	0
0	2519	375.844150707125	1
0	2521	375.981959544468	2
0	2522	375.981959544468	3
0	2523	376.320387012494	2
0	2524	376.320387012494	1
0	2528	376.769198873385	2
0	2529	376.769198873385	3
0	2530	376.844150707125	2
0	2532	377.320387012494	1
0	2533	377.320387012494	0
0	2540	377.88693801273	1
0	2541	378.320387012494	0
0	2554	379.910561715388	1
0	2555	379.942538823496	0
0	2568	381.813174966622	1
0	2569	382.112617382239	0
0	2610	390.220223674763	1
0	2611	390.284996163497	0
0	2617	391.024131966296	1
0	2618	391.220223674763	0
0	2624	391.919200741201	1
0	2625	392.024131966296	0
0	2638	394.686476832102	1
0	2639	394.907643263534	0
0	2652	396.767921689304	1
0	2653	396.827260233748	0
0	2673	400.444202520414	1
0	2674	400.53729401039	0
0	2694	403.743014104063	1
0	2696	404.084647403883	2
0	2697	404.084647403883	3
0	2698	404.707975733996	2
0	2699	404.707975733996	1
0	2702	404.743014104063	0
0	2705	405.043109516544	1
0	2706	405.043109516544	2
0	2708	405.516508625725	3
0	2709	405.516508625725	4
0	2710	405.707975733996	3
0	2711	405.707975733996	2
0	2714	405.743014104063	1
0	2717	406.671799782266	2
0	2718	406.671799782266	3
0	2719	406.707975733996	2
0	2720	406.707975733996	1
0	2723	406.743014104063	0
0	2726	407.206998415243	1
0	2727	407.206998415243	2
0	2728	407.707975733996	1
0	2729	407.707975733996	0
0	2736	408.472839552553	1
0	2737	408.707975733996	0
0	2743	409.371728933696	1
0	2744	409.472839552553	0
0	2750	410.287773047636	1
0	2751	410.371728933696	0
0	2757	411.046832240467	1
0	2758	411.287773047636	0
0	2771	413.544281898048	1
0	2772	413.71326056283	0
0	2778	414.295494022358	1
0	2779	414.544281898048	0
0	2799	417.79338809719	1
0	2800	418.041357295038	0
0	2806	418.769013531658	1
0	2807	418.79338809719	0
0	2813	419.717444579448	1
0	2814	419.769013531658	0
0	2820	420.601888665655	1
0	2821	420.717444579448	0
0	2827	421.294574815188	1
0	2829	421.332532828502	2
0	2830	421.332532828502	3
0	2831	421.601888665655	2
0	2833	421.717444579448	1
0	2835	422.294574815188	0
0	2845	423.124396113485	1
0	2846	423.124396113485	2
0	2847	423.294574815188	1
0	2850	423.525900350449	2
0	2851	423.525900350449	3
0	2852	423.740421746615	2
0	2853	423.740421746615	1
0	2856	424.294574815188	0
0	2869	426.348998750706	1
0	2870	426.351900566712	0
0	2876	426.93812788974	1
0	2877	427.348998750706	0
0	2883	427.802873046367	1
0	2884	427.93812788974	0
0	2887	428.154065464069	1
0	2888	428.154065464069	2
0	2890	428.34739440448	3
0	2891	428.34739440448	4
0	2892	428.348998750706	3
0	2894	428.802873046367	2
0	2897	428.916468317033	3
0	2898	428.916468317033	4
0	2899	428.93812788974	3
0	2901	429.348998750706	2
0	2904	429.730427836361	3
0	2905	429.730427836361	4
0	2906	429.802873046367	3
0	2908	429.93812788974	2
0	2910	430.348998750706	1
0	2912	430.802873046367	0
0	2918	431.342973613156	1
0	2919	431.348998750706	0
0	2922	431.670115055619	1
0	2923	431.670115055619	2
0	2924	431.802873046367	1
0	2926	432.342973613156	0
0	2932	432.381707426315	1
0	2933	432.802873046367	0
0	2936	433.266476130128	1
0	2937	433.266476130128	2
0	2938	433.342973613156	1
0	2940	433.381707426315	0
0	2946	434.01549055106	1
0	2947	434.342973613156	0
0	2953	434.536239511743	1
0	2954	435.01549055106	0
0	2981	439.057617729002	1
0	2982	439.468240169058	0
0	2988	439.760848669202	1
0	2989	440.057617729002	0
0	3023	445.10573611998	1
0	3025	445.264187012318	2
0	3026	445.264187012318	3
0	3028	445.461678436871	4
0	3029	445.461678436871	5
0	3031	445.574375796096	6
0	3032	445.574375796096	7
0	3033	445.702634988447	6
0	3034	445.702634988447	5
0	3037	446.10573611998	4
0	3039	446.702634988447	3
0	3040	446.702634988447	2
0	3044	447.052390971256	3
0	3045	447.052390971256	4
0	3046	447.10573611998	3
0	3048	447.702634988447	2
0	3049	447.702634988447	1
0	3052	448.10573611998	0
0	3055	448.175264008965	1
0	3056	448.175264008965	2
0	3057	448.702634988447	1
0	3058	448.702634988447	0
0	3079	451.481078076903	1
0	3080	451.916052786458	0
0	3093	453.818107208643	1
0	3094	454.084245895505	0
0	3100	454.361243157067	1
0	3101	454.818107208643	0
0	3121	458.851913213287	1
0	3122	459.477096881237	0
0	3132	460.233455283847	1
0	3133	460.233455283847	2
0	3134	460.477096881237	1
0	3136	461.175739036657	0
0	3142	461.319423499027	1
0	3143	461.477096881237	0
0	3146	461.972077268125	1
0	3147	461.972077268125	2
0	3149	462.070124685933	3
0	3150	462.070124685933	4
0	3151	462.175739036657	3
0	3153	462.319423499027	2
0	3155	462.477096881237	1
0	3157	463.175739036657	0
0	3177	465.506376797989	1
0	3178	465.844176571236	0
0	3184	465.87338608118	1
0	3185	466.506376797989	0
0	3188	466.594127891838	1
0	3189	466.594127891838	2
0	3190	466.844176571236	1
0	3192	466.87338608118	0
0	3205	469.546355771585	1
0	3207	469.671530192414	2
0	3208	469.671530192414	3
0	3209	469.963910362939	2
0	3210	469.963910362939	1
0	3214	470.257418462286	2
0	3215	470.257418462286	3
0	3216	470.546355771585	2
0	3218	470.963910362939	1
0	3219	470.963910362939	0
0	3226	471.62342359395	1
0	3227	471.963910362939	0
0	3240	473.569440136923	1
0	3242	473.60354186073	2
0	3243	473.60354186073	3
0	3244	473.76644339205	2
0	3245	473.76644339205	1
0	3248	474.569440136923	0
0	3268	477.322603271272	1
0	3269	477.679138335371	0
0	3296	482.328418840678	1
0	3297	483.261797652707	0
0	3303	483.309867586893	1
0	3304	483.328418840678	0
0	3317	485.468532438165	1
0	3318	485.651342252072	0
0	3331	487.556512187216	1
0	3332	487.64221789896	0
0	3338	488.486603324967	1
0	3339	488.556512187216	0
0	3342	488.60172180234	1
0	3343	488.60172180234	2
0	3344	488.64221789896	1
0	3347	489.350855218855	2
0	3348	489.350855218855	3
0	3349	489.486603324967	2
0	3351	489.556512187216	1
0	3353	489.64221789896	0
0	3366	493.405919259508	1
0	3367	494.170162477055	0
0	3380	495.391500828283	1
0	3381	495.505920528421	0
0	3422	502.974221460402	1
0	3423	503.012106661405	0
0	3429	503.016814316049	1
0	3430	503.974221460402	0
0	3440	504.59826060611	1
0	3441	504.59826060611	2
0	3442	504.974221460402	1
0	3444	505.110109184478	0
0	3464	508.392575352855	1
0	3465	508.687998828539	0
0	3471	509.131751544337	1
0	3472	509.392575352855	0
0	3485	510.636649722936	1
0	3486	511.159455800326	0
0	3506	514.392436609388	1
0	3507	514.670687156143	0
0	3520	516.777626973812	1
0	3521	516.902358818743	0
0	3527	517.188736036606	1
0	3528	517.777626973812	0
0	3541	519.649240819979	1
0	3542	519.82816685749	0
0	3555	521.445096072394	1
0	3556	521.831920419263	0
0	3569	523.334651419883	1
0	3571	523.723821839373	2
0	3572	523.723821839373	3
0	3574	523.83455447007	4
0	3575	523.83455447007	5
0	3576	524.253890555212	4
0	3577	524.253890555212	3
0	3580	524.334651419883	2
0	3583	524.53475378804	3
0	3584	524.53475378804	4
0	3585	525.253890555212	3
0	3586	525.253890555212	2
0	3589	525.334651419883	1
0	3591	526.253890555212	0
0	3601	526.42548965221	1
0	3602	526.42548965221	2
0	3603	527.253890555212	1
0	3605	527.366883337611	0
0	3611	527.680992146577	1
0	3612	528.253890555212	0
0	3618	528.629115883853	1
0	3619	528.680992146577	0
0	3625	529.488032938172	1
0	3626	529.629115883853	0
0	3688	540.581121526501	1
0	3689	541.195517911412	0
0	3695	541.316569655481	1
0	3696	541.581121526501	0
0	3723	546.148584912197	1
0	3724	546.742320999186	0
0	3744	550.160575086767	1
0	3745	550.238453620785	0
0	3758	553.385807158746	1
0	3759	553.574804779886	0
0	3772	555.087695329407	1
0	3773	555.655533766638	0
0	3786	556.915152297379	1
0	3788	557.188046885604	2
0	3789	557.188046885604	3
0	3790	557.420431701791	2
0	3791	557.420431701791	1
0	3794	557.915152297379	0
0	3797	558.082765053437	1
0	3798	558.082765053437	2
0	3799	558.420431701791	1
0	3800	558.420431701791	0
0	3804	558.877236266108	1
0	3805	558.877236266108	2
0	3806	558.915152297379	1
0	3808	559.420431701791	0
0	3821	560.895141421468	1
0	3822	561.044014319669	0
0	3835	563.127186210527	1
0	3836	563.292894339786	0
0	3856	567.809630220277	1
0	3857	568.233793674825	0
0	3863	568.375822995944	1
0	3864	568.809630220277	0
0	3877	571.212556064268	1
0	3878	571.361845153737	0
0	3884	571.833953440637	1
0	3885	572.212556064268	0
0	3891	572.609940550011	1
0	3892	572.833953440637	0
0	3895	573.131674862131	1
0	3896	573.131674862131	2
0	3897	573.212556064268	1
0	3899	573.609940550011	0
0	3905	574.203572021267	1
0	3906	574.212556064268	0
0	3912	575.129811137052	1
0	3913	575.203572021267	0
0	3926	577.479189741421	1
0	3927	577.696675276321	0
0	3933	578.241002935757	1
0	3934	578.479189741421	0
0	3954	581.590528169456	1
0	3955	582.261531773894	0
0	3968	584.782104533438	1
0	3969	584.811628276748	0
0	3975	585.417892351467	1
0	3976	585.782104533438	0
0	3982	586.221094162624	1
0	3983	586.417892351467	0
0	3986	586.693857497542	1
0	3987	586.693857497542	2
0	3988	586.782104533438	1
0	3990	587.221094162624	0
0	4003	588.657376464697	1
0	4004	588.995987963489	0
0	4010	589.43618218977	1
0	4011	589.657376464697	0
0	4031	592.83671259877	1
0	4032	592.998670761552	0
0	4059	599.16280481994	1
0	4060	599.341148317024	0
0	4066	599.983151492359	1
0	4067	600.16280481994	0
0	4073	600.563770824575	1
0	4074	600.983151492359	0
0	4080	601.471318117418	1
0	4081	601.563770824575	0
0	4094	603.808156231529	1
0	4095	603.977391254229	0
0	4101	604.24666893796	1
0	4102	604.808156231529	0
0	4115	606.357252586266	1
0	4116	606.789627552285	0
0	4136	610.028493489793	1
0	4137	610.105487417574	0
0	4143	610.490632506554	1
0	4144	611.028493489793	0
0	4157	612.04110674482	1
0	4159	612.72604604114	2
0	4160	612.72604604114	3
0	4161	612.984458955317	2
0	4162	612.984458955317	1
0	4165	613.04110674482	0
0	4168	613.749416707278	1
0	4169	613.749416707278	2
0	4171	613.879244774167	3
0	4172	613.879244774167	4
0	4173	613.984458955317	3
0	4174	613.984458955317	2
0	4177	614.04110674482	1
0	4179	614.984458955317	0
0	4192	616.233011525792	1
0	4193	616.864485836949	0
0	4213	620.726352952619	1
0	4214	621.270270012693	0
0	4234	623.732840227692	1
0	4235	623.900964586504	0
0	4248	625.527604763784	1
0	4249	625.752049930365	0
0	4255	626.10339371254	1
0	4256	626.527604763784	0
0	4276	629.177115450867	1
0	4277	629.693232212798	0
0	4283	630.169422420961	1
0	4284	630.177115450867	0
0	4297	632.640042470952	1
0	4298	633.052163381676	0
0	4311	634.82123796747	1
0	4312	635.170836794097	0
0	4318	635.714225882144	1
0	4319	635.82123796747	0
0	4325	636.615863164875	1
0	4326	636.714225882144	0
0	4332	637.213285140133	1
0	4334	637.613058886937	2
0	4335	637.613058886937	3
0	4336	637.615863164875	2
0	4338	637.714225882144	1
0	4340	638.213285140133	0
0	4353	639.710624484681	1
0	4354	639.731753915112	0
0	4360	640.116909064961	1
0	4361	640.710624484681	0
0	4374	642.686594177	1
0	4375	643.104474244995	0
0	4395	646.884364773118	1
0	4396	647.049692218494	0
0	4416	650.063763866255	1
0	4417	650.723027996545	0
0	4451	656.182968335708	1
0	4452	656.533311513649	0
0	4458	656.927569742705	1
0	4459	657.182968335708	0
0	4472	658.864421432078	1
0	4473	658.992999701377	0
0	4486	660.650811722793	1
0	4487	661.145968795031	0
0	4493	661.649607781838	1
0	4494	661.650811722793	0
0	4514	665.779132516417	1
0	4515	665.867476679933	0
0	4535	669.377232032975	1
0	4536	670.102739244888	0
0	4542	670.202108070925	1
0	4543	670.377232032975	0
0	4549	671.146909307781	1
0	4550	671.202108070925	0
0	4556	672.087318165657	1
0	4557	672.146909307781	0
0	4577	675.16217701006	1
0	4578	675.412676402018	0
0	4584	676.066350121153	1
0	4585	676.16217701006	0
0	4591	676.761322446545	1
0	4592	677.066350121153	0
0	4619	681.937371831025	1
0	4620	682.256397868403	0
0	4654	687.790474205372	1
0	4655	687.927125852551	0
0	4675	690.979097899845	1
0	4677	691.301925347267	2
0	4678	691.301925347267	3
0	4679	691.526890754622	2
0	4680	691.526890754622	1
0	4683	691.979097899845	0
0	4696	693.494280527055	1
0	4697	693.578889668325	0
0	4703	694.145951576222	1
0	4704	694.494280527055	0
0	4731	699.225002770287	1
0	4732	699.579392714837	0
0	4745	700.806565136215	1
0	4747	701.678255555544	2
0	4748	701.678255555544	3
0	4749	701.685118402002	2
0	4750	701.685118402002	1
0	4753	701.806565136215	0
0	4766	703.776099891578	1
0	4767	704.233734900409	0
0	4773	704.500582913751	1
0	4774	704.776099891578	0
0	4787	706.012084594916	1
0	4788	706.533653535075	0
0	4794	706.565423953085	1
0	4795	707.012084594916	0
0	4808	708.731468042714	1
0	4809	709.149222035281	0
0	4815	709.579499900749	1
0	4816	709.731468042714	0
0	4829	711.161067422874	1
0	4830	711.670369576553	0
0	4850	714.541806990398	1
0	4851	715.192116835624	0
0	4899	724.108579795638	1
0	4901	724.707537413378	2
0	4902	724.707537413378	3
0	4903	724.810153181572	2
0	4904	724.810153181572	1
0	4907	725.108579795638	0
0	4941	730.890528977586	1
0	4942	731.566351564255	0
0	4955	732.596115293902	1
0	4956	733.200637842669	0
0	4962	733.250700390901	1
0	4963	733.596115293902	0
0	4966	734.143283645552	1
0	4967	734.143283645552	2
0	4968	734.200637842669	1
0	4970	734.250700390901	0
0	4983	737.050839125003	1
0	4984	737.195950569756	0
0	5004	739.647976797962	1
0	5006	740.417993098406	2
0	5007	740.417993098406	3
0	5008	740.55404519687	2
0	5009	740.55404519687	1
0	5012	740.647976797962	0
0	5067	752.815239721081	1
0	5068	753.542015505088	0
0	5078	754.230340472835	1
0	5079	754.230340472835	2
0	5080	754.542015505088	1
0	5082	754.916146286132	0
0	5095	756.710073883558	1
0	5096	756.731382059382	0
0	5102	757.084974741611	1
0	5103	757.710073883558	0
0	5158	767.516575456287	1
0	5159	767.966942219272	0
0	5165	768.508071584591	1
0	5166	768.516575456287	0
0	5193	773.285436216263	1
0	5194	773.995008092473	0
0	5214	776.912412016553	1
0	5215	777.26288004349	0
0	5235	781.105614237711	1
0	5237	781.302682840898	2
0	5238	781.302682840898	3
0	5239	781.539258737642	2
0	5240	781.539258737642	1
0	5244	781.839604016562	2
0	5245	781.839604016562	3
0	5246	782.105614237711	2
0	5248	782.539258737642	1
0	5249	782.539258737642	0
0	5253	782.668003295318	1
0	5254	782.668003295318	2
0	5256	783.094643520313	3
0	5257	783.094643520313	4
0	5258	783.105614237711	3
0	5260	783.539258737642	2
0	5261	783.539258737642	1
0	5265	783.954515492123	2
0	5266	783.954515492123	3
0	5267	784.105614237711	2
0	5269	784.539258737642	1
0	5270	784.539258737642	0
0	5274	784.674363573623	1
0	5275	784.674363573623	2
0	5276	785.105614237711	1
0	5278	785.539258737642	0
0	5291	786.795404015298	1
0	5292	787.771063395909	0
0	5305	789.547767164675	1
0	5306	789.779317823058	0
0	5312	790.455695572614	1
0	5313	790.547767164675	0
0	5326	793.431803313457	1
0	5327	793.599460278308	0
0	5403	810.127055793345	1
0	5404	810.622212647731	0
0	5431	814.802006944785	1
0	5433	814.928628303348	2
0	5434	814.928628303348	3
0	5435	815.252876666056	2
0	5436	815.252876666056	1
0	5440	815.512032248055	2
0	5441	815.512032248055	3
0	5442	815.802006944785	2
0	5444	816.252876666056	1
0	5445	816.252876666056	0
0	5449	816.429077656239	1
0	5450	816.429077656239	2
0	5451	816.802006944785	1